LAMMPS (3 Aug 2022)
OMP_NUM_THREADS environment is not set. Defaulting to 1 thread. (src/comm.cpp:98)
  using 1 OpenMP thread(s) per MPI task
Loaded 1 plugins from C:\Users\ejmei\AppData\Local\LAMMPS 64-bit 3Aug2022\plugins
# LAMMPS input script for NaCl crystal simulation with real units

units real
dimension 3
boundary p p p

# Atom definition
atom_style charge
read_data salt3UC.positions
Reading data file ...
  orthogonal box = (0 0 0) to (16.86 16.86 16.86)
  1 by 1 by 1 MPI processor grid
  reading atoms ...
  216 atoms
  reading velocities ...
  216 velocities
  read_data CPU = 0.004 seconds

# Define groups
group Na type 1
108 atoms in group Na
group Cl type 2
108 atoms in group Cl

# Set up pair style and coefficients
pair_style lj/cut/coul/long 7.0 10.0
kspace_style ewald 1e-5

#https://www.hindawi.com/journals/jchem/2020/6661196/
pair_coeff 1 1 0.1 2.583
pair_coeff 1 2 0.1 3.492
pair_coeff 2 2 0.1 4.401


timestep 2.0

compute 1 all pe/atom
compute 2 all pair lj/cut/coul/long ecoul
compute 3 all pair lj/cut/coul/long evdwl
compute 4 all pe
variable elong equal elong


variable T equal 300
velocity all create ${T} 31454 dist gaussian mom yes
velocity all create 300 31454 dist gaussian mom yes


# Run simulation
fix 1 all nve
dump data all custom 10000 dump.atom id q mass x y z fx fy fz c_1 #c_2 c_3
fix eng_print all print 10000 "$(c_2) $(v_elong) $(c_3) $(c_4)" file energy_breakdown.txt
dump_modify data sort id
run 100000
Ewald initialization ...
  using 12-bit tables for long-range coulomb (src/kspace.cpp:342)
  G vector (1/distance) = 0.30830185
  estimated absolute RMS force accuracy = 0.0033218313
  estimated relative force accuracy = 1.0003596e-05
  KSpace vectors: actual max1d max3d = 462 6 1098
                  kxmax kymax kzmax  = 6 6 6
Generated 0 of 1 mixed pair_coeff terms from geometric mixing rule
Neighbor list info ...
  update every 1 steps, delay 10 steps, check yes
  max neighbors/atom: 2000, page size: 100000
  master list distance cutoff = 12
  ghost atom cutoff = 12
  binsize = 6, bins = 3 3 3
  1 neighbor lists, perpetual/occasional/extra = 1 0 0
  (1) pair lj/cut/coul/long, perpetual
      attributes: half, newton on
      pair build: half/bin/atomonly/newton
      stencil: half/bin/3d
      bin: standard
-9829.5515215678024106 -12473.771959531199172 2818.3302827908973995 -19484.993198308064166
Per MPI rank memory allocation (min/avg/max) = 15.17 | 15.17 | 15.17 Mbytes
   Step          Temp          E_pair         E_mol          TotEng         Press     
         0   300           -19484.993      0             -19292.731      102492.91    
-9817.0614700289461325 -12470.602638754800864 2891.5008455447359665 -19396.163263239013759
-9816.4677279562274634 -12471.226412116200663 2901.2215170205395225 -19386.472623051893606
-9816.9328414781884931 -12470.396441728300488 2889.2014156181812723 -19398.127867588314984
-9817.1143987478189956 -12471.15105075899919 2904.0440389948985285 -19384.221410511898284
-9811.4938909579086612 -12470.696302325399301 2891.5920553902337815 -19390.598137893026433
-9809.5966836410480028 -12470.738425957899381 2891.5311265836357961 -19388.803983015302947
-9813.3347859245768632 -12470.444522289999441 2898.7136293928238047 -19385.065678821731126
-9811.669144974935989 -12470.068948725100199 2896.5699815349876189 -19385.168112165025377
-9814.1505471208092786 -12469.862557663100233 2903.3070564676359027 -19380.706048316307715
-9811.8821862118820718 -12470.411772899500647 2898.8914411285941242 -19383.40251798276222
    100000   144.74843     -19383.403      0             -19290.637      106346.96    
Loop time of 256.161 on 1 procs for 100000 steps with 216 atoms

Performance: 67.458 ns/day, 0.356 hours/ns, 390.379 timesteps/s
96.1% CPU use with 1 MPI tasks x 1 OpenMP threads

MPI task timing breakdown:
Section |  min time  |  avg time  |  max time  |%varavg| %total
---------------------------------------------------------------
Pair    | 122.99     | 122.99     | 122.99     |   0.0 | 48.01
Kspace  | 129.58     | 129.58     | 129.58     |   0.0 | 50.58
Neigh   | 0          | 0          | 0          |   0.0 |  0.00
Comm    | 2.5642     | 2.5642     | 2.5642     |   0.0 |  1.00
Output  | 0.019702   | 0.019702   | 0.019702   |   0.0 |  0.01
Modify  | 0.49341    | 0.49341    | 0.49341    |   0.0 |  0.19
Other   |            | 0.5173     |            |       |  0.20

Nlocal:            216 ave         216 max         216 min
Histogram: 1 0 0 0 0 0 0 0 0 0
Nghost:           3159 ave        3159 max        3159 min
Histogram: 1 0 0 0 0 0 0 0 0 0
Neighs:          36720 ave       36720 max       36720 min
Histogram: 1 0 0 0 0 0 0 0 0 0

Total # of neighbors = 36720
Ave neighs/atom = 170
Neighbor list builds = 0
Dangerous builds = 0
Total wall time: 0:04:16
