LAMMPS (28 Mar 2023 - Development)
OMP_NUM_THREADS environment is not set. Defaulting to 1 thread. (src/comm.cpp:98)
  using 1 OpenMP thread(s) per MPI task
# LAMMPS input script for NaCl crystal simulation with real units

units real
dimension 3
boundary p p p

# Atom definition
atom_style charge
read_data salt8UC.positions
Reading data file ...
  orthogonal box = (0 0 0) to (44.96 44.96 44.96)
  1 by 1 by 1 MPI processor grid
  reading atoms ...
  4096 atoms
  reading velocities ...
  4096 velocities
  read_data CPU = 0.058 seconds

# Define groups
group Na type 1
2048 atoms in group Na
group Cl type 2
2048 atoms in group Cl

# Set up pair style and coefficients
pair_style lj/cut/coul/long 7.0 10.0
kspace_style ewald 1e-5

#THIS IS NOT REAL JUST FOR SIMPLICITY IN PROJECT
pair_coeff 1 1 0.1 3.492
pair_coeff 1 2 0.1 3.492
pair_coeff 2 2 0.1 3.492


timestep 2.0

compute 1 all pe/atom
compute 2 all pair lj/cut/coul/long ecoul
compute 3 all pair lj/cut/coul/long evdwl
compute 4 all pe
variable elong equal elong


variable T equal 300
velocity all create ${T} 31454 dist gaussian mom yes
velocity all create 300 31454 dist gaussian mom yes


# Run simulation
fix 1 all nve
dump data all custom 1000 dump.atom id q mass x y z fx fy fz c_1
dump_modify data format line "%d %.4f %.4f %.9f %.9f %.9f %.9f %.9f %.9f %9f"
fix eng_print all print 1000 "$(c_2) $(v_elong) $(c_3) $(c_4)" file energy_breakdown.txt
dump_modify data sort id
run 10000
Ewald initialization ...
  using 12-bit tables for long-range coulomb (src/kspace.cpp:342)
  G vector (1/distance) = 0.30830185
  estimated absolute RMS force accuracy = 0.0038081141
  estimated relative force accuracy = 1.1468023e-05
  KSpace vectors: actual max1d max3d = 5756 14 12194
                  kxmax kymax kzmax  = 14 14 14
Generated 0 of 1 mixed pair_coeff terms from geometric mixing rule
Neighbor list info ...
  update: every = 1 steps, delay = 0 steps, check = yes
  max neighbors/atom: 2000, page size: 100000
  master list distance cutoff = 12
  ghost atom cutoff = 12
  binsize = 6, bins = 8 8 8
  1 neighbor lists, perpetual/occasional/extra = 1 0 0
  (1) pair lj/cut/coul/long, perpetual
      attributes: half, newton on
      pair build: half/bin/atomonly/newton
      stencil: half/bin/3d
      bin: standard
-186397.42144632150303 -236539.6756770350039 44198.502780215967505 -378738.59434314083774
Per MPI rank memory allocation (min/avg/max) = 32.23 | 32.23 | 32.23 Mbytes
   Step          Temp          E_pair         E_mol          TotEng         Press     
         0   300           -378738.59      0             -375076.67      66173.125    
-185868.22459251398686 -236467.77271360901068 45457.518397927837214 -376878.47890819486929
-185883.05819089154829 -236465.53629544901196 45462.903060906777682 -376885.6914254341973
-185917.87986460307729 -236469.91156939498615 45482.578538664631196 -376905.21289533370873
-185854.61572650528979 -236466.87434518599184 45459.111545901396312 -376862.37852578959428
-185881.18728433968499 -236471.64352195200627 45460.104841337815742 -376892.72596495394828
-185882.64533677670988 -236465.63404542399803 45485.115777193168469 -376863.16360500757582
-185869.39282831540913 -236468.92961966100847 45481.295404691736621 -376857.02704328438267
-185882.78856564220041 -236466.8584570880048 45494.065461433739983 -376855.58156129613053
-185905.67913794581546 -236470.84397066500969 45491.908202063241333 -376884.61490654782392
-185903.00701004298753 -236468.29860110601294 45480.943520410874044 -376890.36209073790815
     10000   151.72465     -376890.36      0             -375038.35      69338.521    
Loop time of 1303.66 on 1 procs for 10000 steps with 4096 atoms

Performance: 1.326 ns/day, 18.106 hours/ns, 7.671 timesteps/s, 31.419 katom-step/s
100.0% CPU use with 1 MPI tasks x 1 OpenMP threads

MPI task timing breakdown:
Section |  min time  |  avg time  |  max time  |%varavg| %total
---------------------------------------------------------------
Pair    | 80.373     | 80.373     | 80.373     |   0.0 |  6.17
Kspace  | 1221.8     | 1221.8     | 1221.8     |   0.0 | 93.72
Neigh   | 0          | 0          | 0          |   0.0 |  0.00
Comm    | 0.63946    | 0.63946    | 0.63946    |   0.0 |  0.05
Output  | 0.24849    | 0.24849    | 0.24849    |   0.0 |  0.02
Modify  | 0.36217    | 0.36217    | 0.36217    |   0.0 |  0.03
Other   |            | 0.2339     |            |       |  0.02

Nlocal:           4096 ave        4096 max        4096 min
Histogram: 1 0 0 0 0 0 0 0 0 0
Nghost:          11529 ave       11529 max       11529 min
Histogram: 1 0 0 0 0 0 0 0 0 0
Neighs:         696320 ave      696320 max      696320 min
Histogram: 1 0 0 0 0 0 0 0 0 0

Total # of neighbors = 696320
Ave neighs/atom = 170
Neighbor list builds = 0
Dangerous builds = 0
Total wall time: 0:21:44
