LAMMPS data file via write_data, version 28 Mar 2023, timestep = 0, units = real

4096 atoms
2 atom types

0 44.96 xlo xhi
0 44.96 ylo yhi
0 44.96 zlo zhi

Masses

1 22.9897
2 35.453

Atoms # charge

1 1 1 0.0 0.0 0.0 0 0 0
2 1 1 2.81 0.0 2.81 0 0 0
3 1 1 0.0 2.81 2.81 0 0 0
4 1 1 2.81 2.81 0.0 0 0 0
5 2 -1 2.81 0.0 0.0 0 0 0
6 2 -1 0.0 2.81 0.0 0 0 0
7 2 -1 0.0 0.0 2.81 0 0 0
8 2 -1 2.81 2.81 2.81 0 0 0
9 1 1 5.62 0.0 0.0 0 0 0
10 1 1 8.43 0.0 2.81 0 0 0
11 1 1 5.62 2.81 2.81 0 0 0
12 1 1 8.43 2.81 0.0 0 0 0
13 2 -1 8.43 0.0 0.0 0 0 0
14 2 -1 5.62 2.81 0.0 0 0 0
15 2 -1 5.62 0.0 2.81 0 0 0
16 2 -1 8.43 2.81 2.81 0 0 0
17 1 1 11.24 0.0 0.0 0 0 0
18 1 1 14.05 0.0 2.81 0 0 0
19 1 1 11.24 2.81 2.81 0 0 0
20 1 1 14.05 2.81 0.0 0 0 0
21 2 -1 14.05 0.0 0.0 0 0 0
22 2 -1 11.24 2.81 0.0 0 0 0
23 2 -1 11.24 0.0 2.81 0 0 0
24 2 -1 14.05 2.81 2.81 0 0 0
25 1 1 16.86 0.0 0.0 0 0 0
26 1 1 19.67 0.0 2.81 0 0 0
27 1 1 16.86 2.81 2.81 0 0 0
28 1 1 19.67 2.81 0.0 0 0 0
29 2 -1 19.67 0.0 0.0 0 0 0
30 2 -1 16.86 2.81 0.0 0 0 0
31 2 -1 16.86 0.0 2.81 0 0 0
32 2 -1 19.67 2.81 2.81 0 0 0
33 1 1 22.48 0.0 0.0 0 0 0
34 1 1 25.29 0.0 2.81 0 0 0
35 1 1 22.48 2.81 2.81 0 0 0
36 1 1 25.29 2.81 0.0 0 0 0
37 2 -1 25.29 0.0 0.0 0 0 0
38 2 -1 22.48 2.81 0.0 0 0 0
39 2 -1 22.48 0.0 2.81 0 0 0
40 2 -1 25.29 2.81 2.81 0 0 0
41 1 1 28.1 0.0 0.0 0 0 0
42 1 1 30.91 0.0 2.81 0 0 0
43 1 1 28.1 2.81 2.81 0 0 0
44 1 1 30.91 2.81 0.0 0 0 0
45 2 -1 30.91 0.0 0.0 0 0 0
46 2 -1 28.1 2.81 0.0 0 0 0
47 2 -1 28.1 0.0 2.81 0 0 0
48 2 -1 30.91 2.81 2.81 0 0 0
49 1 1 33.72 0.0 0.0 0 0 0
50 1 1 36.53 0.0 2.81 0 0 0
51 1 1 33.72 2.81 2.81 0 0 0
52 1 1 36.53 2.81 0.0 0 0 0
53 2 -1 36.53 0.0 0.0 0 0 0
54 2 -1 33.72 2.81 0.0 0 0 0
55 2 -1 33.72 0.0 2.81 0 0 0
56 2 -1 36.53 2.81 2.81 0 0 0
57 1 1 39.34 0.0 0.0 0 0 0
58 1 1 42.15 0.0 2.81 0 0 0
59 1 1 39.34 2.81 2.81 0 0 0
60 1 1 42.15 2.81 0.0 0 0 0
61 2 -1 42.15 0.0 0.0 0 0 0
62 2 -1 39.34 2.81 0.0 0 0 0
63 2 -1 39.34 0.0 2.81 0 0 0
64 2 -1 42.15 2.81 2.81 0 0 0
65 1 1 0.0 5.62 0.0 0 0 0
66 1 1 2.81 5.62 2.81 0 0 0
67 1 1 0.0 8.43 2.81 0 0 0
68 1 1 2.81 8.43 0.0 0 0 0
69 2 -1 2.81 5.62 0.0 0 0 0
70 2 -1 0.0 8.43 0.0 0 0 0
71 2 -1 0.0 5.62 2.81 0 0 0
72 2 -1 2.81 8.43 2.81 0 0 0
73 1 1 5.62 5.62 0.0 0 0 0
74 1 1 8.43 5.62 2.81 0 0 0
75 1 1 5.62 8.43 2.81 0 0 0
76 1 1 8.43 8.43 0.0 0 0 0
77 2 -1 8.43 5.62 0.0 0 0 0
78 2 -1 5.62 8.43 0.0 0 0 0
79 2 -1 5.62 5.62 2.81 0 0 0
80 2 -1 8.43 8.43 2.81 0 0 0
81 1 1 11.24 5.62 0.0 0 0 0
82 1 1 14.05 5.62 2.81 0 0 0
83 1 1 11.24 8.43 2.81 0 0 0
84 1 1 14.05 8.43 0.0 0 0 0
85 2 -1 14.05 5.62 0.0 0 0 0
86 2 -1 11.24 8.43 0.0 0 0 0
87 2 -1 11.24 5.62 2.81 0 0 0
88 2 -1 14.05 8.43 2.81 0 0 0
89 1 1 16.86 5.62 0.0 0 0 0
90 1 1 19.67 5.62 2.81 0 0 0
91 1 1 16.86 8.43 2.81 0 0 0
92 1 1 19.67 8.43 0.0 0 0 0
93 2 -1 19.67 5.62 0.0 0 0 0
94 2 -1 16.86 8.43 0.0 0 0 0
95 2 -1 16.86 5.62 2.81 0 0 0
96 2 -1 19.67 8.43 2.81 0 0 0
97 1 1 22.48 5.62 0.0 0 0 0
98 1 1 25.29 5.62 2.81 0 0 0
99 1 1 22.48 8.43 2.81 0 0 0
100 1 1 25.29 8.43 0.0 0 0 0
101 2 -1 25.29 5.62 0.0 0 0 0
102 2 -1 22.48 8.43 0.0 0 0 0
103 2 -1 22.48 5.62 2.81 0 0 0
104 2 -1 25.29 8.43 2.81 0 0 0
105 1 1 28.1 5.62 0.0 0 0 0
106 1 1 30.91 5.62 2.81 0 0 0
107 1 1 28.1 8.43 2.81 0 0 0
108 1 1 30.91 8.43 0.0 0 0 0
109 2 -1 30.91 5.62 0.0 0 0 0
110 2 -1 28.1 8.43 0.0 0 0 0
111 2 -1 28.1 5.62 2.81 0 0 0
112 2 -1 30.91 8.43 2.81 0 0 0
113 1 1 33.72 5.62 0.0 0 0 0
114 1 1 36.53 5.62 2.81 0 0 0
115 1 1 33.72 8.43 2.81 0 0 0
116 1 1 36.53 8.43 0.0 0 0 0
117 2 -1 36.53 5.62 0.0 0 0 0
118 2 -1 33.72 8.43 0.0 0 0 0
119 2 -1 33.72 5.62 2.81 0 0 0
120 2 -1 36.53 8.43 2.81 0 0 0
121 1 1 39.34 5.62 0.0 0 0 0
122 1 1 42.15 5.62 2.81 0 0 0
123 1 1 39.34 8.43 2.81 0 0 0
124 1 1 42.15 8.43 0.0 0 0 0
125 2 -1 42.15 5.62 0.0 0 0 0
126 2 -1 39.34 8.43 0.0 0 0 0
127 2 -1 39.34 5.62 2.81 0 0 0
128 2 -1 42.15 8.43 2.81 0 0 0
129 1 1 0.0 11.24 0.0 0 0 0
130 1 1 2.81 11.24 2.81 0 0 0
131 1 1 0.0 14.05 2.81 0 0 0
132 1 1 2.81 14.05 0.0 0 0 0
133 2 -1 2.81 11.24 0.0 0 0 0
134 2 -1 0.0 14.05 0.0 0 0 0
135 2 -1 0.0 11.24 2.81 0 0 0
136 2 -1 2.81 14.05 2.81 0 0 0
137 1 1 5.62 11.24 0.0 0 0 0
138 1 1 8.43 11.24 2.81 0 0 0
139 1 1 5.62 14.05 2.81 0 0 0
140 1 1 8.43 14.05 0.0 0 0 0
141 2 -1 8.43 11.24 0.0 0 0 0
142 2 -1 5.62 14.05 0.0 0 0 0
143 2 -1 5.62 11.24 2.81 0 0 0
144 2 -1 8.43 14.05 2.81 0 0 0
145 1 1 11.24 11.24 0.0 0 0 0
146 1 1 14.05 11.24 2.81 0 0 0
147 1 1 11.24 14.05 2.81 0 0 0
148 1 1 14.05 14.05 0.0 0 0 0
149 2 -1 14.05 11.24 0.0 0 0 0
150 2 -1 11.24 14.05 0.0 0 0 0
151 2 -1 11.24 11.24 2.81 0 0 0
152 2 -1 14.05 14.05 2.81 0 0 0
153 1 1 16.86 11.24 0.0 0 0 0
154 1 1 19.67 11.24 2.81 0 0 0
155 1 1 16.86 14.05 2.81 0 0 0
156 1 1 19.67 14.05 0.0 0 0 0
157 2 -1 19.67 11.24 0.0 0 0 0
158 2 -1 16.86 14.05 0.0 0 0 0
159 2 -1 16.86 11.24 2.81 0 0 0
160 2 -1 19.67 14.05 2.81 0 0 0
161 1 1 22.48 11.24 0.0 0 0 0
162 1 1 25.29 11.24 2.81 0 0 0
163 1 1 22.48 14.05 2.81 0 0 0
164 1 1 25.29 14.05 0.0 0 0 0
165 2 -1 25.29 11.24 0.0 0 0 0
166 2 -1 22.48 14.05 0.0 0 0 0
167 2 -1 22.48 11.24 2.81 0 0 0
168 2 -1 25.29 14.05 2.81 0 0 0
169 1 1 28.1 11.24 0.0 0 0 0
170 1 1 30.91 11.24 2.81 0 0 0
171 1 1 28.1 14.05 2.81 0 0 0
172 1 1 30.91 14.05 0.0 0 0 0
173 2 -1 30.91 11.24 0.0 0 0 0
174 2 -1 28.1 14.05 0.0 0 0 0
175 2 -1 28.1 11.24 2.81 0 0 0
176 2 -1 30.91 14.05 2.81 0 0 0
177 1 1 33.72 11.24 0.0 0 0 0
178 1 1 36.53 11.24 2.81 0 0 0
179 1 1 33.72 14.05 2.81 0 0 0
180 1 1 36.53 14.05 0.0 0 0 0
181 2 -1 36.53 11.24 0.0 0 0 0
182 2 -1 33.72 14.05 0.0 0 0 0
183 2 -1 33.72 11.24 2.81 0 0 0
184 2 -1 36.53 14.05 2.81 0 0 0
185 1 1 39.34 11.24 0.0 0 0 0
186 1 1 42.15 11.24 2.81 0 0 0
187 1 1 39.34 14.05 2.81 0 0 0
188 1 1 42.15 14.05 0.0 0 0 0
189 2 -1 42.15 11.24 0.0 0 0 0
190 2 -1 39.34 14.05 0.0 0 0 0
191 2 -1 39.34 11.24 2.81 0 0 0
192 2 -1 42.15 14.05 2.81 0 0 0
193 1 1 0.0 16.86 0.0 0 0 0
194 1 1 2.81 16.86 2.81 0 0 0
195 1 1 0.0 19.67 2.81 0 0 0
196 1 1 2.81 19.67 0.0 0 0 0
197 2 -1 2.81 16.86 0.0 0 0 0
198 2 -1 0.0 19.67 0.0 0 0 0
199 2 -1 0.0 16.86 2.81 0 0 0
200 2 -1 2.81 19.67 2.81 0 0 0
201 1 1 5.62 16.86 0.0 0 0 0
202 1 1 8.43 16.86 2.81 0 0 0
203 1 1 5.62 19.67 2.81 0 0 0
204 1 1 8.43 19.67 0.0 0 0 0
205 2 -1 8.43 16.86 0.0 0 0 0
206 2 -1 5.62 19.67 0.0 0 0 0
207 2 -1 5.62 16.86 2.81 0 0 0
208 2 -1 8.43 19.67 2.81 0 0 0
209 1 1 11.24 16.86 0.0 0 0 0
210 1 1 14.05 16.86 2.81 0 0 0
211 1 1 11.24 19.67 2.81 0 0 0
212 1 1 14.05 19.67 0.0 0 0 0
213 2 -1 14.05 16.86 0.0 0 0 0
214 2 -1 11.24 19.67 0.0 0 0 0
215 2 -1 11.24 16.86 2.81 0 0 0
216 2 -1 14.05 19.67 2.81 0 0 0
217 1 1 16.86 16.86 0.0 0 0 0
218 1 1 19.67 16.86 2.81 0 0 0
219 1 1 16.86 19.67 2.81 0 0 0
220 1 1 19.67 19.67 0.0 0 0 0
221 2 -1 19.67 16.86 0.0 0 0 0
222 2 -1 16.86 19.67 0.0 0 0 0
223 2 -1 16.86 16.86 2.81 0 0 0
224 2 -1 19.67 19.67 2.81 0 0 0
225 1 1 22.48 16.86 0.0 0 0 0
226 1 1 25.29 16.86 2.81 0 0 0
227 1 1 22.48 19.67 2.81 0 0 0
228 1 1 25.29 19.67 0.0 0 0 0
229 2 -1 25.29 16.86 0.0 0 0 0
230 2 -1 22.48 19.67 0.0 0 0 0
231 2 -1 22.48 16.86 2.81 0 0 0
232 2 -1 25.29 19.67 2.81 0 0 0
233 1 1 28.1 16.86 0.0 0 0 0
234 1 1 30.91 16.86 2.81 0 0 0
235 1 1 28.1 19.67 2.81 0 0 0
236 1 1 30.91 19.67 0.0 0 0 0
237 2 -1 30.91 16.86 0.0 0 0 0
238 2 -1 28.1 19.67 0.0 0 0 0
239 2 -1 28.1 16.86 2.81 0 0 0
240 2 -1 30.91 19.67 2.81 0 0 0
241 1 1 33.72 16.86 0.0 0 0 0
242 1 1 36.53 16.86 2.81 0 0 0
243 1 1 33.72 19.67 2.81 0 0 0
244 1 1 36.53 19.67 0.0 0 0 0
245 2 -1 36.53 16.86 0.0 0 0 0
246 2 -1 33.72 19.67 0.0 0 0 0
247 2 -1 33.72 16.86 2.81 0 0 0
248 2 -1 36.53 19.67 2.81 0 0 0
249 1 1 39.34 16.86 0.0 0 0 0
250 1 1 42.15 16.86 2.81 0 0 0
251 1 1 39.34 19.67 2.81 0 0 0
252 1 1 42.15 19.67 0.0 0 0 0
253 2 -1 42.15 16.86 0.0 0 0 0
254 2 -1 39.34 19.67 0.0 0 0 0
255 2 -1 39.34 16.86 2.81 0 0 0
256 2 -1 42.15 19.67 2.81 0 0 0
257 1 1 0.0 22.48 0.0 0 0 0
258 1 1 2.81 22.48 2.81 0 0 0
259 1 1 0.0 25.29 2.81 0 0 0
260 1 1 2.81 25.29 0.0 0 0 0
261 2 -1 2.81 22.48 0.0 0 0 0
262 2 -1 0.0 25.29 0.0 0 0 0
263 2 -1 0.0 22.48 2.81 0 0 0
264 2 -1 2.81 25.29 2.81 0 0 0
265 1 1 5.62 22.48 0.0 0 0 0
266 1 1 8.43 22.48 2.81 0 0 0
267 1 1 5.62 25.29 2.81 0 0 0
268 1 1 8.43 25.29 0.0 0 0 0
269 2 -1 8.43 22.48 0.0 0 0 0
270 2 -1 5.62 25.29 0.0 0 0 0
271 2 -1 5.62 22.48 2.81 0 0 0
272 2 -1 8.43 25.29 2.81 0 0 0
273 1 1 11.24 22.48 0.0 0 0 0
274 1 1 14.05 22.48 2.81 0 0 0
275 1 1 11.24 25.29 2.81 0 0 0
276 1 1 14.05 25.29 0.0 0 0 0
277 2 -1 14.05 22.48 0.0 0 0 0
278 2 -1 11.24 25.29 0.0 0 0 0
279 2 -1 11.24 22.48 2.81 0 0 0
280 2 -1 14.05 25.29 2.81 0 0 0
281 1 1 16.86 22.48 0.0 0 0 0
282 1 1 19.67 22.48 2.81 0 0 0
283 1 1 16.86 25.29 2.81 0 0 0
284 1 1 19.67 25.29 0.0 0 0 0
285 2 -1 19.67 22.48 0.0 0 0 0
286 2 -1 16.86 25.29 0.0 0 0 0
287 2 -1 16.86 22.48 2.81 0 0 0
288 2 -1 19.67 25.29 2.81 0 0 0
289 1 1 22.48 22.48 0.0 0 0 0
290 1 1 25.29 22.48 2.81 0 0 0
291 1 1 22.48 25.29 2.81 0 0 0
292 1 1 25.29 25.29 0.0 0 0 0
293 2 -1 25.29 22.48 0.0 0 0 0
294 2 -1 22.48 25.29 0.0 0 0 0
295 2 -1 22.48 22.48 2.81 0 0 0
296 2 -1 25.29 25.29 2.81 0 0 0
297 1 1 28.1 22.48 0.0 0 0 0
298 1 1 30.91 22.48 2.81 0 0 0
299 1 1 28.1 25.29 2.81 0 0 0
300 1 1 30.91 25.29 0.0 0 0 0
301 2 -1 30.91 22.48 0.0 0 0 0
302 2 -1 28.1 25.29 0.0 0 0 0
303 2 -1 28.1 22.48 2.81 0 0 0
304 2 -1 30.91 25.29 2.81 0 0 0
305 1 1 33.72 22.48 0.0 0 0 0
306 1 1 36.53 22.48 2.81 0 0 0
307 1 1 33.72 25.29 2.81 0 0 0
308 1 1 36.53 25.29 0.0 0 0 0
309 2 -1 36.53 22.48 0.0 0 0 0
310 2 -1 33.72 25.29 0.0 0 0 0
311 2 -1 33.72 22.48 2.81 0 0 0
312 2 -1 36.53 25.29 2.81 0 0 0
313 1 1 39.34 22.48 0.0 0 0 0
314 1 1 42.15 22.48 2.81 0 0 0
315 1 1 39.34 25.29 2.81 0 0 0
316 1 1 42.15 25.29 0.0 0 0 0
317 2 -1 42.15 22.48 0.0 0 0 0
318 2 -1 39.34 25.29 0.0 0 0 0
319 2 -1 39.34 22.48 2.81 0 0 0
320 2 -1 42.15 25.29 2.81 0 0 0
321 1 1 0.0 28.1 0.0 0 0 0
322 1 1 2.81 28.1 2.81 0 0 0
323 1 1 0.0 30.91 2.81 0 0 0
324 1 1 2.81 30.91 0.0 0 0 0
325 2 -1 2.81 28.1 0.0 0 0 0
326 2 -1 0.0 30.91 0.0 0 0 0
327 2 -1 0.0 28.1 2.81 0 0 0
328 2 -1 2.81 30.91 2.81 0 0 0
329 1 1 5.62 28.1 0.0 0 0 0
330 1 1 8.43 28.1 2.81 0 0 0
331 1 1 5.62 30.91 2.81 0 0 0
332 1 1 8.43 30.91 0.0 0 0 0
333 2 -1 8.43 28.1 0.0 0 0 0
334 2 -1 5.62 30.91 0.0 0 0 0
335 2 -1 5.62 28.1 2.81 0 0 0
336 2 -1 8.43 30.91 2.81 0 0 0
337 1 1 11.24 28.1 0.0 0 0 0
338 1 1 14.05 28.1 2.81 0 0 0
339 1 1 11.24 30.91 2.81 0 0 0
340 1 1 14.05 30.91 0.0 0 0 0
341 2 -1 14.05 28.1 0.0 0 0 0
342 2 -1 11.24 30.91 0.0 0 0 0
343 2 -1 11.24 28.1 2.81 0 0 0
344 2 -1 14.05 30.91 2.81 0 0 0
345 1 1 16.86 28.1 0.0 0 0 0
346 1 1 19.67 28.1 2.81 0 0 0
347 1 1 16.86 30.91 2.81 0 0 0
348 1 1 19.67 30.91 0.0 0 0 0
349 2 -1 19.67 28.1 0.0 0 0 0
350 2 -1 16.86 30.91 0.0 0 0 0
351 2 -1 16.86 28.1 2.81 0 0 0
352 2 -1 19.67 30.91 2.81 0 0 0
353 1 1 22.48 28.1 0.0 0 0 0
354 1 1 25.29 28.1 2.81 0 0 0
355 1 1 22.48 30.91 2.81 0 0 0
356 1 1 25.29 30.91 0.0 0 0 0
357 2 -1 25.29 28.1 0.0 0 0 0
358 2 -1 22.48 30.91 0.0 0 0 0
359 2 -1 22.48 28.1 2.81 0 0 0
360 2 -1 25.29 30.91 2.81 0 0 0
361 1 1 28.1 28.1 0.0 0 0 0
362 1 1 30.91 28.1 2.81 0 0 0
363 1 1 28.1 30.91 2.81 0 0 0
364 1 1 30.91 30.91 0.0 0 0 0
365 2 -1 30.91 28.1 0.0 0 0 0
366 2 -1 28.1 30.91 0.0 0 0 0
367 2 -1 28.1 28.1 2.81 0 0 0
368 2 -1 30.91 30.91 2.81 0 0 0
369 1 1 33.72 28.1 0.0 0 0 0
370 1 1 36.53 28.1 2.81 0 0 0
371 1 1 33.72 30.91 2.81 0 0 0
372 1 1 36.53 30.91 0.0 0 0 0
373 2 -1 36.53 28.1 0.0 0 0 0
374 2 -1 33.72 30.91 0.0 0 0 0
375 2 -1 33.72 28.1 2.81 0 0 0
376 2 -1 36.53 30.91 2.81 0 0 0
377 1 1 39.34 28.1 0.0 0 0 0
378 1 1 42.15 28.1 2.81 0 0 0
379 1 1 39.34 30.91 2.81 0 0 0
380 1 1 42.15 30.91 0.0 0 0 0
381 2 -1 42.15 28.1 0.0 0 0 0
382 2 -1 39.34 30.91 0.0 0 0 0
383 2 -1 39.34 28.1 2.81 0 0 0
384 2 -1 42.15 30.91 2.81 0 0 0
385 1 1 0.0 33.72 0.0 0 0 0
386 1 1 2.81 33.72 2.81 0 0 0
387 1 1 0.0 36.53 2.81 0 0 0
388 1 1 2.81 36.53 0.0 0 0 0
389 2 -1 2.81 33.72 0.0 0 0 0
390 2 -1 0.0 36.53 0.0 0 0 0
391 2 -1 0.0 33.72 2.81 0 0 0
392 2 -1 2.81 36.53 2.81 0 0 0
393 1 1 5.62 33.72 0.0 0 0 0
394 1 1 8.43 33.72 2.81 0 0 0
395 1 1 5.62 36.53 2.81 0 0 0
396 1 1 8.43 36.53 0.0 0 0 0
397 2 -1 8.43 33.72 0.0 0 0 0
398 2 -1 5.62 36.53 0.0 0 0 0
399 2 -1 5.62 33.72 2.81 0 0 0
400 2 -1 8.43 36.53 2.81 0 0 0
401 1 1 11.24 33.72 0.0 0 0 0
402 1 1 14.05 33.72 2.81 0 0 0
403 1 1 11.24 36.53 2.81 0 0 0
404 1 1 14.05 36.53 0.0 0 0 0
405 2 -1 14.05 33.72 0.0 0 0 0
406 2 -1 11.24 36.53 0.0 0 0 0
407 2 -1 11.24 33.72 2.81 0 0 0
408 2 -1 14.05 36.53 2.81 0 0 0
409 1 1 16.86 33.72 0.0 0 0 0
410 1 1 19.67 33.72 2.81 0 0 0
411 1 1 16.86 36.53 2.81 0 0 0
412 1 1 19.67 36.53 0.0 0 0 0
413 2 -1 19.67 33.72 0.0 0 0 0
414 2 -1 16.86 36.53 0.0 0 0 0
415 2 -1 16.86 33.72 2.81 0 0 0
416 2 -1 19.67 36.53 2.81 0 0 0
417 1 1 22.48 33.72 0.0 0 0 0
418 1 1 25.29 33.72 2.81 0 0 0
419 1 1 22.48 36.53 2.81 0 0 0
420 1 1 25.29 36.53 0.0 0 0 0
421 2 -1 25.29 33.72 0.0 0 0 0
422 2 -1 22.48 36.53 0.0 0 0 0
423 2 -1 22.48 33.72 2.81 0 0 0
424 2 -1 25.29 36.53 2.81 0 0 0
425 1 1 28.1 33.72 0.0 0 0 0
426 1 1 30.91 33.72 2.81 0 0 0
427 1 1 28.1 36.53 2.81 0 0 0
428 1 1 30.91 36.53 0.0 0 0 0
429 2 -1 30.91 33.72 0.0 0 0 0
430 2 -1 28.1 36.53 0.0 0 0 0
431 2 -1 28.1 33.72 2.81 0 0 0
432 2 -1 30.91 36.53 2.81 0 0 0
433 1 1 33.72 33.72 0.0 0 0 0
434 1 1 36.53 33.72 2.81 0 0 0
435 1 1 33.72 36.53 2.81 0 0 0
436 1 1 36.53 36.53 0.0 0 0 0
437 2 -1 36.53 33.72 0.0 0 0 0
438 2 -1 33.72 36.53 0.0 0 0 0
439 2 -1 33.72 33.72 2.81 0 0 0
440 2 -1 36.53 36.53 2.81 0 0 0
441 1 1 39.34 33.72 0.0 0 0 0
442 1 1 42.15 33.72 2.81 0 0 0
443 1 1 39.34 36.53 2.81 0 0 0
444 1 1 42.15 36.53 0.0 0 0 0
445 2 -1 42.15 33.72 0.0 0 0 0
446 2 -1 39.34 36.53 0.0 0 0 0
447 2 -1 39.34 33.72 2.81 0 0 0
448 2 -1 42.15 36.53 2.81 0 0 0
449 1 1 0.0 39.34 0.0 0 0 0
450 1 1 2.81 39.34 2.81 0 0 0
451 1 1 0.0 42.15 2.81 0 0 0
452 1 1 2.81 42.15 0.0 0 0 0
453 2 -1 2.81 39.34 0.0 0 0 0
454 2 -1 0.0 42.15 0.0 0 0 0
455 2 -1 0.0 39.34 2.81 0 0 0
456 2 -1 2.81 42.15 2.81 0 0 0
457 1 1 5.62 39.34 0.0 0 0 0
458 1 1 8.43 39.34 2.81 0 0 0
459 1 1 5.62 42.15 2.81 0 0 0
460 1 1 8.43 42.15 0.0 0 0 0
461 2 -1 8.43 39.34 0.0 0 0 0
462 2 -1 5.62 42.15 0.0 0 0 0
463 2 -1 5.62 39.34 2.81 0 0 0
464 2 -1 8.43 42.15 2.81 0 0 0
465 1 1 11.24 39.34 0.0 0 0 0
466 1 1 14.05 39.34 2.81 0 0 0
467 1 1 11.24 42.15 2.81 0 0 0
468 1 1 14.05 42.15 0.0 0 0 0
469 2 -1 14.05 39.34 0.0 0 0 0
470 2 -1 11.24 42.15 0.0 0 0 0
471 2 -1 11.24 39.34 2.81 0 0 0
472 2 -1 14.05 42.15 2.81 0 0 0
473 1 1 16.86 39.34 0.0 0 0 0
474 1 1 19.67 39.34 2.81 0 0 0
475 1 1 16.86 42.15 2.81 0 0 0
476 1 1 19.67 42.15 0.0 0 0 0
477 2 -1 19.67 39.34 0.0 0 0 0
478 2 -1 16.86 42.15 0.0 0 0 0
479 2 -1 16.86 39.34 2.81 0 0 0
480 2 -1 19.67 42.15 2.81 0 0 0
481 1 1 22.48 39.34 0.0 0 0 0
482 1 1 25.29 39.34 2.81 0 0 0
483 1 1 22.48 42.15 2.81 0 0 0
484 1 1 25.29 42.15 0.0 0 0 0
485 2 -1 25.29 39.34 0.0 0 0 0
486 2 -1 22.48 42.15 0.0 0 0 0
487 2 -1 22.48 39.34 2.81 0 0 0
488 2 -1 25.29 42.15 2.81 0 0 0
489 1 1 28.1 39.34 0.0 0 0 0
490 1 1 30.91 39.34 2.81 0 0 0
491 1 1 28.1 42.15 2.81 0 0 0
492 1 1 30.91 42.15 0.0 0 0 0
493 2 -1 30.91 39.34 0.0 0 0 0
494 2 -1 28.1 42.15 0.0 0 0 0
495 2 -1 28.1 39.34 2.81 0 0 0
496 2 -1 30.91 42.15 2.81 0 0 0
497 1 1 33.72 39.34 0.0 0 0 0
498 1 1 36.53 39.34 2.81 0 0 0
499 1 1 33.72 42.15 2.81 0 0 0
500 1 1 36.53 42.15 0.0 0 0 0
501 2 -1 36.53 39.34 0.0 0 0 0
502 2 -1 33.72 42.15 0.0 0 0 0
503 2 -1 33.72 39.34 2.81 0 0 0
504 2 -1 36.53 42.15 2.81 0 0 0
505 1 1 39.34 39.34 0.0 0 0 0
506 1 1 42.15 39.34 2.81 0 0 0
507 1 1 39.34 42.15 2.81 0 0 0
508 1 1 42.15 42.15 0.0 0 0 0
509 2 -1 42.15 39.34 0.0 0 0 0
510 2 -1 39.34 42.15 0.0 0 0 0
511 2 -1 39.34 39.34 2.81 0 0 0
512 2 -1 42.15 42.15 2.81 0 0 0
513 1 1 0.0 0.0 5.62 0 0 0
514 1 1 2.81 0.0 8.43 0 0 0
515 1 1 0.0 2.81 8.43 0 0 0
516 1 1 2.81 2.81 5.62 0 0 0
517 2 -1 2.81 0.0 5.62 0 0 0
518 2 -1 0.0 2.81 5.62 0 0 0
519 2 -1 0.0 0.0 8.43 0 0 0
520 2 -1 2.81 2.81 8.43 0 0 0
521 1 1 5.62 0.0 5.62 0 0 0
522 1 1 8.43 0.0 8.43 0 0 0
523 1 1 5.62 2.81 8.43 0 0 0
524 1 1 8.43 2.81 5.62 0 0 0
525 2 -1 8.43 0.0 5.62 0 0 0
526 2 -1 5.62 2.81 5.62 0 0 0
527 2 -1 5.62 0.0 8.43 0 0 0
528 2 -1 8.43 2.81 8.43 0 0 0
529 1 1 11.24 0.0 5.62 0 0 0
530 1 1 14.05 0.0 8.43 0 0 0
531 1 1 11.24 2.81 8.43 0 0 0
532 1 1 14.05 2.81 5.62 0 0 0
533 2 -1 14.05 0.0 5.62 0 0 0
534 2 -1 11.24 2.81 5.62 0 0 0
535 2 -1 11.24 0.0 8.43 0 0 0
536 2 -1 14.05 2.81 8.43 0 0 0
537 1 1 16.86 0.0 5.62 0 0 0
538 1 1 19.67 0.0 8.43 0 0 0
539 1 1 16.86 2.81 8.43 0 0 0
540 1 1 19.67 2.81 5.62 0 0 0
541 2 -1 19.67 0.0 5.62 0 0 0
542 2 -1 16.86 2.81 5.62 0 0 0
543 2 -1 16.86 0.0 8.43 0 0 0
544 2 -1 19.67 2.81 8.43 0 0 0
545 1 1 22.48 0.0 5.62 0 0 0
546 1 1 25.29 0.0 8.43 0 0 0
547 1 1 22.48 2.81 8.43 0 0 0
548 1 1 25.29 2.81 5.62 0 0 0
549 2 -1 25.29 0.0 5.62 0 0 0
550 2 -1 22.48 2.81 5.62 0 0 0
551 2 -1 22.48 0.0 8.43 0 0 0
552 2 -1 25.29 2.81 8.43 0 0 0
553 1 1 28.1 0.0 5.62 0 0 0
554 1 1 30.91 0.0 8.43 0 0 0
555 1 1 28.1 2.81 8.43 0 0 0
556 1 1 30.91 2.81 5.62 0 0 0
557 2 -1 30.91 0.0 5.62 0 0 0
558 2 -1 28.1 2.81 5.62 0 0 0
559 2 -1 28.1 0.0 8.43 0 0 0
560 2 -1 30.91 2.81 8.43 0 0 0
561 1 1 33.72 0.0 5.62 0 0 0
562 1 1 36.53 0.0 8.43 0 0 0
563 1 1 33.72 2.81 8.43 0 0 0
564 1 1 36.53 2.81 5.62 0 0 0
565 2 -1 36.53 0.0 5.62 0 0 0
566 2 -1 33.72 2.81 5.62 0 0 0
567 2 -1 33.72 0.0 8.43 0 0 0
568 2 -1 36.53 2.81 8.43 0 0 0
569 1 1 39.34 0.0 5.62 0 0 0
570 1 1 42.15 0.0 8.43 0 0 0
571 1 1 39.34 2.81 8.43 0 0 0
572 1 1 42.15 2.81 5.62 0 0 0
573 2 -1 42.15 0.0 5.62 0 0 0
574 2 -1 39.34 2.81 5.62 0 0 0
575 2 -1 39.34 0.0 8.43 0 0 0
576 2 -1 42.15 2.81 8.43 0 0 0
577 1 1 0.0 5.62 5.62 0 0 0
578 1 1 2.81 5.62 8.43 0 0 0
579 1 1 0.0 8.43 8.43 0 0 0
580 1 1 2.81 8.43 5.62 0 0 0
581 2 -1 2.81 5.62 5.62 0 0 0
582 2 -1 0.0 8.43 5.62 0 0 0
583 2 -1 0.0 5.62 8.43 0 0 0
584 2 -1 2.81 8.43 8.43 0 0 0
585 1 1 5.62 5.62 5.62 0 0 0
586 1 1 8.43 5.62 8.43 0 0 0
587 1 1 5.62 8.43 8.43 0 0 0
588 1 1 8.43 8.43 5.62 0 0 0
589 2 -1 8.43 5.62 5.62 0 0 0
590 2 -1 5.62 8.43 5.62 0 0 0
591 2 -1 5.62 5.62 8.43 0 0 0
592 2 -1 8.43 8.43 8.43 0 0 0
593 1 1 11.24 5.62 5.62 0 0 0
594 1 1 14.05 5.62 8.43 0 0 0
595 1 1 11.24 8.43 8.43 0 0 0
596 1 1 14.05 8.43 5.62 0 0 0
597 2 -1 14.05 5.62 5.62 0 0 0
598 2 -1 11.24 8.43 5.62 0 0 0
599 2 -1 11.24 5.62 8.43 0 0 0
600 2 -1 14.05 8.43 8.43 0 0 0
601 1 1 16.86 5.62 5.62 0 0 0
602 1 1 19.67 5.62 8.43 0 0 0
603 1 1 16.86 8.43 8.43 0 0 0
604 1 1 19.67 8.43 5.62 0 0 0
605 2 -1 19.67 5.62 5.62 0 0 0
606 2 -1 16.86 8.43 5.62 0 0 0
607 2 -1 16.86 5.62 8.43 0 0 0
608 2 -1 19.67 8.43 8.43 0 0 0
609 1 1 22.48 5.62 5.62 0 0 0
610 1 1 25.29 5.62 8.43 0 0 0
611 1 1 22.48 8.43 8.43 0 0 0
612 1 1 25.29 8.43 5.62 0 0 0
613 2 -1 25.29 5.62 5.62 0 0 0
614 2 -1 22.48 8.43 5.62 0 0 0
615 2 -1 22.48 5.62 8.43 0 0 0
616 2 -1 25.29 8.43 8.43 0 0 0
617 1 1 28.1 5.62 5.62 0 0 0
618 1 1 30.91 5.62 8.43 0 0 0
619 1 1 28.1 8.43 8.43 0 0 0
620 1 1 30.91 8.43 5.62 0 0 0
621 2 -1 30.91 5.62 5.62 0 0 0
622 2 -1 28.1 8.43 5.62 0 0 0
623 2 -1 28.1 5.62 8.43 0 0 0
624 2 -1 30.91 8.43 8.43 0 0 0
625 1 1 33.72 5.62 5.62 0 0 0
626 1 1 36.53 5.62 8.43 0 0 0
627 1 1 33.72 8.43 8.43 0 0 0
628 1 1 36.53 8.43 5.62 0 0 0
629 2 -1 36.53 5.62 5.62 0 0 0
630 2 -1 33.72 8.43 5.62 0 0 0
631 2 -1 33.72 5.62 8.43 0 0 0
632 2 -1 36.53 8.43 8.43 0 0 0
633 1 1 39.34 5.62 5.62 0 0 0
634 1 1 42.15 5.62 8.43 0 0 0
635 1 1 39.34 8.43 8.43 0 0 0
636 1 1 42.15 8.43 5.62 0 0 0
637 2 -1 42.15 5.62 5.62 0 0 0
638 2 -1 39.34 8.43 5.62 0 0 0
639 2 -1 39.34 5.62 8.43 0 0 0
640 2 -1 42.15 8.43 8.43 0 0 0
641 1 1 0.0 11.24 5.62 0 0 0
642 1 1 2.81 11.24 8.43 0 0 0
643 1 1 0.0 14.05 8.43 0 0 0
644 1 1 2.81 14.05 5.62 0 0 0
645 2 -1 2.81 11.24 5.62 0 0 0
646 2 -1 0.0 14.05 5.62 0 0 0
647 2 -1 0.0 11.24 8.43 0 0 0
648 2 -1 2.81 14.05 8.43 0 0 0
649 1 1 5.62 11.24 5.62 0 0 0
650 1 1 8.43 11.24 8.43 0 0 0
651 1 1 5.62 14.05 8.43 0 0 0
652 1 1 8.43 14.05 5.62 0 0 0
653 2 -1 8.43 11.24 5.62 0 0 0
654 2 -1 5.62 14.05 5.62 0 0 0
655 2 -1 5.62 11.24 8.43 0 0 0
656 2 -1 8.43 14.05 8.43 0 0 0
657 1 1 11.24 11.24 5.62 0 0 0
658 1 1 14.05 11.24 8.43 0 0 0
659 1 1 11.24 14.05 8.43 0 0 0
660 1 1 14.05 14.05 5.62 0 0 0
661 2 -1 14.05 11.24 5.62 0 0 0
662 2 -1 11.24 14.05 5.62 0 0 0
663 2 -1 11.24 11.24 8.43 0 0 0
664 2 -1 14.05 14.05 8.43 0 0 0
665 1 1 16.86 11.24 5.62 0 0 0
666 1 1 19.67 11.24 8.43 0 0 0
667 1 1 16.86 14.05 8.43 0 0 0
668 1 1 19.67 14.05 5.62 0 0 0
669 2 -1 19.67 11.24 5.62 0 0 0
670 2 -1 16.86 14.05 5.62 0 0 0
671 2 -1 16.86 11.24 8.43 0 0 0
672 2 -1 19.67 14.05 8.43 0 0 0
673 1 1 22.48 11.24 5.62 0 0 0
674 1 1 25.29 11.24 8.43 0 0 0
675 1 1 22.48 14.05 8.43 0 0 0
676 1 1 25.29 14.05 5.62 0 0 0
677 2 -1 25.29 11.24 5.62 0 0 0
678 2 -1 22.48 14.05 5.62 0 0 0
679 2 -1 22.48 11.24 8.43 0 0 0
680 2 -1 25.29 14.05 8.43 0 0 0
681 1 1 28.1 11.24 5.62 0 0 0
682 1 1 30.91 11.24 8.43 0 0 0
683 1 1 28.1 14.05 8.43 0 0 0
684 1 1 30.91 14.05 5.62 0 0 0
685 2 -1 30.91 11.24 5.62 0 0 0
686 2 -1 28.1 14.05 5.62 0 0 0
687 2 -1 28.1 11.24 8.43 0 0 0
688 2 -1 30.91 14.05 8.43 0 0 0
689 1 1 33.72 11.24 5.62 0 0 0
690 1 1 36.53 11.24 8.43 0 0 0
691 1 1 33.72 14.05 8.43 0 0 0
692 1 1 36.53 14.05 5.62 0 0 0
693 2 -1 36.53 11.24 5.62 0 0 0
694 2 -1 33.72 14.05 5.62 0 0 0
695 2 -1 33.72 11.24 8.43 0 0 0
696 2 -1 36.53 14.05 8.43 0 0 0
697 1 1 39.34 11.24 5.62 0 0 0
698 1 1 42.15 11.24 8.43 0 0 0
699 1 1 39.34 14.05 8.43 0 0 0
700 1 1 42.15 14.05 5.62 0 0 0
701 2 -1 42.15 11.24 5.62 0 0 0
702 2 -1 39.34 14.05 5.62 0 0 0
703 2 -1 39.34 11.24 8.43 0 0 0
704 2 -1 42.15 14.05 8.43 0 0 0
705 1 1 0.0 16.86 5.62 0 0 0
706 1 1 2.81 16.86 8.43 0 0 0
707 1 1 0.0 19.67 8.43 0 0 0
708 1 1 2.81 19.67 5.62 0 0 0
709 2 -1 2.81 16.86 5.62 0 0 0
710 2 -1 0.0 19.67 5.62 0 0 0
711 2 -1 0.0 16.86 8.43 0 0 0
712 2 -1 2.81 19.67 8.43 0 0 0
713 1 1 5.62 16.86 5.62 0 0 0
714 1 1 8.43 16.86 8.43 0 0 0
715 1 1 5.62 19.67 8.43 0 0 0
716 1 1 8.43 19.67 5.62 0 0 0
717 2 -1 8.43 16.86 5.62 0 0 0
718 2 -1 5.62 19.67 5.62 0 0 0
719 2 -1 5.62 16.86 8.43 0 0 0
720 2 -1 8.43 19.67 8.43 0 0 0
721 1 1 11.24 16.86 5.62 0 0 0
722 1 1 14.05 16.86 8.43 0 0 0
723 1 1 11.24 19.67 8.43 0 0 0
724 1 1 14.05 19.67 5.62 0 0 0
725 2 -1 14.05 16.86 5.62 0 0 0
726 2 -1 11.24 19.67 5.62 0 0 0
727 2 -1 11.24 16.86 8.43 0 0 0
728 2 -1 14.05 19.67 8.43 0 0 0
729 1 1 16.86 16.86 5.62 0 0 0
730 1 1 19.67 16.86 8.43 0 0 0
731 1 1 16.86 19.67 8.43 0 0 0
732 1 1 19.67 19.67 5.62 0 0 0
733 2 -1 19.67 16.86 5.62 0 0 0
734 2 -1 16.86 19.67 5.62 0 0 0
735 2 -1 16.86 16.86 8.43 0 0 0
736 2 -1 19.67 19.67 8.43 0 0 0
737 1 1 22.48 16.86 5.62 0 0 0
738 1 1 25.29 16.86 8.43 0 0 0
739 1 1 22.48 19.67 8.43 0 0 0
740 1 1 25.29 19.67 5.62 0 0 0
741 2 -1 25.29 16.86 5.62 0 0 0
742 2 -1 22.48 19.67 5.62 0 0 0
743 2 -1 22.48 16.86 8.43 0 0 0
744 2 -1 25.29 19.67 8.43 0 0 0
745 1 1 28.1 16.86 5.62 0 0 0
746 1 1 30.91 16.86 8.43 0 0 0
747 1 1 28.1 19.67 8.43 0 0 0
748 1 1 30.91 19.67 5.62 0 0 0
749 2 -1 30.91 16.86 5.62 0 0 0
750 2 -1 28.1 19.67 5.62 0 0 0
751 2 -1 28.1 16.86 8.43 0 0 0
752 2 -1 30.91 19.67 8.43 0 0 0
753 1 1 33.72 16.86 5.62 0 0 0
754 1 1 36.53 16.86 8.43 0 0 0
755 1 1 33.72 19.67 8.43 0 0 0
756 1 1 36.53 19.67 5.62 0 0 0
757 2 -1 36.53 16.86 5.62 0 0 0
758 2 -1 33.72 19.67 5.62 0 0 0
759 2 -1 33.72 16.86 8.43 0 0 0
760 2 -1 36.53 19.67 8.43 0 0 0
761 1 1 39.34 16.86 5.62 0 0 0
762 1 1 42.15 16.86 8.43 0 0 0
763 1 1 39.34 19.67 8.43 0 0 0
764 1 1 42.15 19.67 5.62 0 0 0
765 2 -1 42.15 16.86 5.62 0 0 0
766 2 -1 39.34 19.67 5.62 0 0 0
767 2 -1 39.34 16.86 8.43 0 0 0
768 2 -1 42.15 19.67 8.43 0 0 0
769 1 1 0.0 22.48 5.62 0 0 0
770 1 1 2.81 22.48 8.43 0 0 0
771 1 1 0.0 25.29 8.43 0 0 0
772 1 1 2.81 25.29 5.62 0 0 0
773 2 -1 2.81 22.48 5.62 0 0 0
774 2 -1 0.0 25.29 5.62 0 0 0
775 2 -1 0.0 22.48 8.43 0 0 0
776 2 -1 2.81 25.29 8.43 0 0 0
777 1 1 5.62 22.48 5.62 0 0 0
778 1 1 8.43 22.48 8.43 0 0 0
779 1 1 5.62 25.29 8.43 0 0 0
780 1 1 8.43 25.29 5.62 0 0 0
781 2 -1 8.43 22.48 5.62 0 0 0
782 2 -1 5.62 25.29 5.62 0 0 0
783 2 -1 5.62 22.48 8.43 0 0 0
784 2 -1 8.43 25.29 8.43 0 0 0
785 1 1 11.24 22.48 5.62 0 0 0
786 1 1 14.05 22.48 8.43 0 0 0
787 1 1 11.24 25.29 8.43 0 0 0
788 1 1 14.05 25.29 5.62 0 0 0
789 2 -1 14.05 22.48 5.62 0 0 0
790 2 -1 11.24 25.29 5.62 0 0 0
791 2 -1 11.24 22.48 8.43 0 0 0
792 2 -1 14.05 25.29 8.43 0 0 0
793 1 1 16.86 22.48 5.62 0 0 0
794 1 1 19.67 22.48 8.43 0 0 0
795 1 1 16.86 25.29 8.43 0 0 0
796 1 1 19.67 25.29 5.62 0 0 0
797 2 -1 19.67 22.48 5.62 0 0 0
798 2 -1 16.86 25.29 5.62 0 0 0
799 2 -1 16.86 22.48 8.43 0 0 0
800 2 -1 19.67 25.29 8.43 0 0 0
801 1 1 22.48 22.48 5.62 0 0 0
802 1 1 25.29 22.48 8.43 0 0 0
803 1 1 22.48 25.29 8.43 0 0 0
804 1 1 25.29 25.29 5.62 0 0 0
805 2 -1 25.29 22.48 5.62 0 0 0
806 2 -1 22.48 25.29 5.62 0 0 0
807 2 -1 22.48 22.48 8.43 0 0 0
808 2 -1 25.29 25.29 8.43 0 0 0
809 1 1 28.1 22.48 5.62 0 0 0
810 1 1 30.91 22.48 8.43 0 0 0
811 1 1 28.1 25.29 8.43 0 0 0
812 1 1 30.91 25.29 5.62 0 0 0
813 2 -1 30.91 22.48 5.62 0 0 0
814 2 -1 28.1 25.29 5.62 0 0 0
815 2 -1 28.1 22.48 8.43 0 0 0
816 2 -1 30.91 25.29 8.43 0 0 0
817 1 1 33.72 22.48 5.62 0 0 0
818 1 1 36.53 22.48 8.43 0 0 0
819 1 1 33.72 25.29 8.43 0 0 0
820 1 1 36.53 25.29 5.62 0 0 0
821 2 -1 36.53 22.48 5.62 0 0 0
822 2 -1 33.72 25.29 5.62 0 0 0
823 2 -1 33.72 22.48 8.43 0 0 0
824 2 -1 36.53 25.29 8.43 0 0 0
825 1 1 39.34 22.48 5.62 0 0 0
826 1 1 42.15 22.48 8.43 0 0 0
827 1 1 39.34 25.29 8.43 0 0 0
828 1 1 42.15 25.29 5.62 0 0 0
829 2 -1 42.15 22.48 5.62 0 0 0
830 2 -1 39.34 25.29 5.62 0 0 0
831 2 -1 39.34 22.48 8.43 0 0 0
832 2 -1 42.15 25.29 8.43 0 0 0
833 1 1 0.0 28.1 5.62 0 0 0
834 1 1 2.81 28.1 8.43 0 0 0
835 1 1 0.0 30.91 8.43 0 0 0
836 1 1 2.81 30.91 5.62 0 0 0
837 2 -1 2.81 28.1 5.62 0 0 0
838 2 -1 0.0 30.91 5.62 0 0 0
839 2 -1 0.0 28.1 8.43 0 0 0
840 2 -1 2.81 30.91 8.43 0 0 0
841 1 1 5.62 28.1 5.62 0 0 0
842 1 1 8.43 28.1 8.43 0 0 0
843 1 1 5.62 30.91 8.43 0 0 0
844 1 1 8.43 30.91 5.62 0 0 0
845 2 -1 8.43 28.1 5.62 0 0 0
846 2 -1 5.62 30.91 5.62 0 0 0
847 2 -1 5.62 28.1 8.43 0 0 0
848 2 -1 8.43 30.91 8.43 0 0 0
849 1 1 11.24 28.1 5.62 0 0 0
850 1 1 14.05 28.1 8.43 0 0 0
851 1 1 11.24 30.91 8.43 0 0 0
852 1 1 14.05 30.91 5.62 0 0 0
853 2 -1 14.05 28.1 5.62 0 0 0
854 2 -1 11.24 30.91 5.62 0 0 0
855 2 -1 11.24 28.1 8.43 0 0 0
856 2 -1 14.05 30.91 8.43 0 0 0
857 1 1 16.86 28.1 5.62 0 0 0
858 1 1 19.67 28.1 8.43 0 0 0
859 1 1 16.86 30.91 8.43 0 0 0
860 1 1 19.67 30.91 5.62 0 0 0
861 2 -1 19.67 28.1 5.62 0 0 0
862 2 -1 16.86 30.91 5.62 0 0 0
863 2 -1 16.86 28.1 8.43 0 0 0
864 2 -1 19.67 30.91 8.43 0 0 0
865 1 1 22.48 28.1 5.62 0 0 0
866 1 1 25.29 28.1 8.43 0 0 0
867 1 1 22.48 30.91 8.43 0 0 0
868 1 1 25.29 30.91 5.62 0 0 0
869 2 -1 25.29 28.1 5.62 0 0 0
870 2 -1 22.48 30.91 5.62 0 0 0
871 2 -1 22.48 28.1 8.43 0 0 0
872 2 -1 25.29 30.91 8.43 0 0 0
873 1 1 28.1 28.1 5.62 0 0 0
874 1 1 30.91 28.1 8.43 0 0 0
875 1 1 28.1 30.91 8.43 0 0 0
876 1 1 30.91 30.91 5.62 0 0 0
877 2 -1 30.91 28.1 5.62 0 0 0
878 2 -1 28.1 30.91 5.62 0 0 0
879 2 -1 28.1 28.1 8.43 0 0 0
880 2 -1 30.91 30.91 8.43 0 0 0
881 1 1 33.72 28.1 5.62 0 0 0
882 1 1 36.53 28.1 8.43 0 0 0
883 1 1 33.72 30.91 8.43 0 0 0
884 1 1 36.53 30.91 5.62 0 0 0
885 2 -1 36.53 28.1 5.62 0 0 0
886 2 -1 33.72 30.91 5.62 0 0 0
887 2 -1 33.72 28.1 8.43 0 0 0
888 2 -1 36.53 30.91 8.43 0 0 0
889 1 1 39.34 28.1 5.62 0 0 0
890 1 1 42.15 28.1 8.43 0 0 0
891 1 1 39.34 30.91 8.43 0 0 0
892 1 1 42.15 30.91 5.62 0 0 0
893 2 -1 42.15 28.1 5.62 0 0 0
894 2 -1 39.34 30.91 5.62 0 0 0
895 2 -1 39.34 28.1 8.43 0 0 0
896 2 -1 42.15 30.91 8.43 0 0 0
897 1 1 0.0 33.72 5.62 0 0 0
898 1 1 2.81 33.72 8.43 0 0 0
899 1 1 0.0 36.53 8.43 0 0 0
900 1 1 2.81 36.53 5.62 0 0 0
901 2 -1 2.81 33.72 5.62 0 0 0
902 2 -1 0.0 36.53 5.62 0 0 0
903 2 -1 0.0 33.72 8.43 0 0 0
904 2 -1 2.81 36.53 8.43 0 0 0
905 1 1 5.62 33.72 5.62 0 0 0
906 1 1 8.43 33.72 8.43 0 0 0
907 1 1 5.62 36.53 8.43 0 0 0
908 1 1 8.43 36.53 5.62 0 0 0
909 2 -1 8.43 33.72 5.62 0 0 0
910 2 -1 5.62 36.53 5.62 0 0 0
911 2 -1 5.62 33.72 8.43 0 0 0
912 2 -1 8.43 36.53 8.43 0 0 0
913 1 1 11.24 33.72 5.62 0 0 0
914 1 1 14.05 33.72 8.43 0 0 0
915 1 1 11.24 36.53 8.43 0 0 0
916 1 1 14.05 36.53 5.62 0 0 0
917 2 -1 14.05 33.72 5.62 0 0 0
918 2 -1 11.24 36.53 5.62 0 0 0
919 2 -1 11.24 33.72 8.43 0 0 0
920 2 -1 14.05 36.53 8.43 0 0 0
921 1 1 16.86 33.72 5.62 0 0 0
922 1 1 19.67 33.72 8.43 0 0 0
923 1 1 16.86 36.53 8.43 0 0 0
924 1 1 19.67 36.53 5.62 0 0 0
925 2 -1 19.67 33.72 5.62 0 0 0
926 2 -1 16.86 36.53 5.62 0 0 0
927 2 -1 16.86 33.72 8.43 0 0 0
928 2 -1 19.67 36.53 8.43 0 0 0
929 1 1 22.48 33.72 5.62 0 0 0
930 1 1 25.29 33.72 8.43 0 0 0
931 1 1 22.48 36.53 8.43 0 0 0
932 1 1 25.29 36.53 5.62 0 0 0
933 2 -1 25.29 33.72 5.62 0 0 0
934 2 -1 22.48 36.53 5.62 0 0 0
935 2 -1 22.48 33.72 8.43 0 0 0
936 2 -1 25.29 36.53 8.43 0 0 0
937 1 1 28.1 33.72 5.62 0 0 0
938 1 1 30.91 33.72 8.43 0 0 0
939 1 1 28.1 36.53 8.43 0 0 0
940 1 1 30.91 36.53 5.62 0 0 0
941 2 -1 30.91 33.72 5.62 0 0 0
942 2 -1 28.1 36.53 5.62 0 0 0
943 2 -1 28.1 33.72 8.43 0 0 0
944 2 -1 30.91 36.53 8.43 0 0 0
945 1 1 33.72 33.72 5.62 0 0 0
946 1 1 36.53 33.72 8.43 0 0 0
947 1 1 33.72 36.53 8.43 0 0 0
948 1 1 36.53 36.53 5.62 0 0 0
949 2 -1 36.53 33.72 5.62 0 0 0
950 2 -1 33.72 36.53 5.62 0 0 0
951 2 -1 33.72 33.72 8.43 0 0 0
952 2 -1 36.53 36.53 8.43 0 0 0
953 1 1 39.34 33.72 5.62 0 0 0
954 1 1 42.15 33.72 8.43 0 0 0
955 1 1 39.34 36.53 8.43 0 0 0
956 1 1 42.15 36.53 5.62 0 0 0
957 2 -1 42.15 33.72 5.62 0 0 0
958 2 -1 39.34 36.53 5.62 0 0 0
959 2 -1 39.34 33.72 8.43 0 0 0
960 2 -1 42.15 36.53 8.43 0 0 0
961 1 1 0.0 39.34 5.62 0 0 0
962 1 1 2.81 39.34 8.43 0 0 0
963 1 1 0.0 42.15 8.43 0 0 0
964 1 1 2.81 42.15 5.62 0 0 0
965 2 -1 2.81 39.34 5.62 0 0 0
966 2 -1 0.0 42.15 5.62 0 0 0
967 2 -1 0.0 39.34 8.43 0 0 0
968 2 -1 2.81 42.15 8.43 0 0 0
969 1 1 5.62 39.34 5.62 0 0 0
970 1 1 8.43 39.34 8.43 0 0 0
971 1 1 5.62 42.15 8.43 0 0 0
972 1 1 8.43 42.15 5.62 0 0 0
973 2 -1 8.43 39.34 5.62 0 0 0
974 2 -1 5.62 42.15 5.62 0 0 0
975 2 -1 5.62 39.34 8.43 0 0 0
976 2 -1 8.43 42.15 8.43 0 0 0
977 1 1 11.24 39.34 5.62 0 0 0
978 1 1 14.05 39.34 8.43 0 0 0
979 1 1 11.24 42.15 8.43 0 0 0
980 1 1 14.05 42.15 5.62 0 0 0
981 2 -1 14.05 39.34 5.62 0 0 0