LAMMPS data file via write_data, version 28 Mar 2023, timestep = 0, units = real

216 atoms
2 atom types

0 16.86 xlo xhi
0 16.86 ylo yhi
0 16.86 zlo zhi

Masses

1 22.9897
2 35.453

Atoms # charge

1 1 1 0.0 0.0 0.0 0 0 0
2 1 1 2.81 0.0 2.81 0 0 0
3 1 1 0.0 2.81 2.81 0 0 0
4 1 1 2.81 2.81 0.0 0 0 0
5 2 -1 2.81 0.0 0.0 0 0 0
6 2 -1 0.0 2.81 0.0 0 0 0
7 2 -1 0.0 0.0 2.81 0 0 0
8 2 -1 2.81 2.81 2.81 0 0 0
9 1 1 5.62 0.0 0.0 0 0 0
10 1 1 8.43 0.0 2.81 0 0 0
11 1 1 5.62 2.81 2.81 0 0 0
12 1 1 8.43 2.81 0.0 0 0 0
13 2 -1 8.43 0.0 0.0 0 0 0
14 2 -1 5.62 2.81 0.0 0 0 0
15 2 -1 5.62 0.0 2.81 0 0 0
16 2 -1 8.43 2.81 2.81 0 0 0
17 1 1 11.24 0.0 0.0 0 0 0
18 1 1 14.05 0.0 2.81 0 0 0
19 1 1 11.24 2.81 2.81 0 0 0
20 1 1 14.05 2.81 0.0 0 0 0
21 2 -1 14.05 0.0 0.0 0 0 0
22 2 -1 11.24 2.81 0.0 0 0 0
23 2 -1 11.24 0.0 2.81 0 0 0
24 2 -1 14.05 2.81 2.81 0 0 0
25 1 1 0.0 5.62 0.0 0 0 0
26 1 1 2.81 5.62 2.81 0 0 0
27 1 1 0.0 8.43 2.81 0 0 0
28 1 1 2.81 8.43 0.0 0 0 0
29 2 -1 2.81 5.62 0.0 0 0 0
30 2 -1 0.0 8.43 0.0 0 0 0
31 2 -1 0.0 5.62 2.81 0 0 0
32 2 -1 2.81 8.43 2.81 0 0 0
33 1 1 5.62 5.62 0.0 0 0 0
34 1 1 8.43 5.62 2.81 0 0 0
35 1 1 5.62 8.43 2.81 0 0 0
36 1 1 8.43 8.43 0.0 0 0 0
37 2 -1 8.43 5.62 0.0 0 0 0
38 2 -1 5.62 8.43 0.0 0 0 0
39 2 -1 5.62 5.62 2.81 0 0 0
40 2 -1 8.43 8.43 2.81 0 0 0
41 1 1 11.24 5.62 0.0 0 0 0
42 1 1 14.05 5.62 2.81 0 0 0
43 1 1 11.24 8.43 2.81 0 0 0
44 1 1 14.05 8.43 0.0 0 0 0
45 2 -1 14.05 5.62 0.0 0 0 0
46 2 -1 11.24 8.43 0.0 0 0 0
47 2 -1 11.24 5.62 2.81 0 0 0
48 2 -1 14.05 8.43 2.81 0 0 0
49 1 1 0.0 11.24 0.0 0 0 0
50 1 1 2.81 11.24 2.81 0 0 0
51 1 1 0.0 14.05 2.81 0 0 0
52 1 1 2.81 14.05 0.0 0 0 0
53 2 -1 2.81 11.24 0.0 0 0 0
54 2 -1 0.0 14.05 0.0 0 0 0
55 2 -1 0.0 11.24 2.81 0 0 0
56 2 -1 2.81 14.05 2.81 0 0 0
57 1 1 5.62 11.24 0.0 0 0 0
58 1 1 8.43 11.24 2.81 0 0 0
59 1 1 5.62 14.05 2.81 0 0 0
60 1 1 8.43 14.05 0.0 0 0 0
61 2 -1 8.43 11.24 0.0 0 0 0
62 2 -1 5.62 14.05 0.0 0 0 0
63 2 -1 5.62 11.24 2.81 0 0 0
64 2 -1 8.43 14.05 2.81 0 0 0
65 1 1 11.24 11.24 0.0 0 0 0
66 1 1 14.05 11.24 2.81 0 0 0
67 1 1 11.24 14.05 2.81 0 0 0
68 1 1 14.05 14.05 0.0 0 0 0
69 2 -1 14.05 11.24 0.0 0 0 0
70 2 -1 11.24 14.05 0.0 0 0 0
71 2 -1 11.24 11.24 2.81 0 0 0
72 2 -1 14.05 14.05 2.81 0 0 0
73 1 1 0.0 0.0 5.62 0 0 0
74 1 1 2.81 0.0 8.43 0 0 0
75 1 1 0.0 2.81 8.43 0 0 0
76 1 1 2.81 2.81 5.62 0 0 0
77 2 -1 2.81 0.0 5.62 0 0 0
78 2 -1 0.0 2.81 5.62 0 0 0
79 2 -1 0.0 0.0 8.43 0 0 0
80 2 -1 2.81 2.81 8.43 0 0 0
81 1 1 5.62 0.0 5.62 0 0 0
82 1 1 8.43 0.0 8.43 0 0 0
83 1 1 5.62 2.81 8.43 0 0 0
84 1 1 8.43 2.81 5.62 0 0 0
85 2 -1 8.43 0.0 5.62 0 0 0
86 2 -1 5.62 2.81 5.62 0 0 0
87 2 -1 5.62 0.0 8.43 0 0 0
88 2 -1 8.43 2.81 8.43 0 0 0
89 1 1 11.24 0.0 5.62 0 0 0
90 1 1 14.05 0.0 8.43 0 0 0
91 1 1 11.24 2.81 8.43 0 0 0
92 1 1 14.05 2.81 5.62 0 0 0
93 2 -1 14.05 0.0 5.62 0 0 0
94 2 -1 11.24 2.81 5.62 0 0 0
95 2 -1 11.24 0.0 8.43 0 0 0
96 2 -1 14.05 2.81 8.43 0 0 0
97 1 1 0.0 5.62 5.62 0 0 0
98 1 1 2.81 5.62 8.43 0 0 0
99 1 1 0.0 8.43 8.43 0 0 0
100 1 1 2.81 8.43 5.62 0 0 0
101 2 -1 2.81 5.62 5.62 0 0 0
102 2 -1 0.0 8.43 5.62 0 0 0
103 2 -1 0.0 5.62 8.43 0 0 0
104 2 -1 2.81 8.43 8.43 0 0 0
105 1 1 5.62 5.62 5.62 0 0 0
106 1 1 8.43 5.62 8.43 0 0 0
107 1 1 5.62 8.43 8.43 0 0 0
108 1 1 8.43 8.43 5.62 0 0 0
109 2 -1 8.43 5.62 5.62 0 0 0
110 2 -1 5.62 8.43 5.62 0 0 0
111 2 -1 5.62 5.62 8.43 0 0 0
112 2 -1 8.43 8.43 8.43 0 0 0
113 1 1 11.24 5.62 5.62 0 0 0
114 1 1 14.05 5.62 8.43 0 0 0
115 1 1 11.24 8.43 8.43 0 0 0
116 1 1 14.05 8.43 5.62 0 0 0
117 2 -1 14.05 5.62 5.62 0 0 0
118 2 -1 11.24 8.43 5.62 0 0 0
119 2 -1 11.24 5.62 8.43 0 0 0
120 2 -1 14.05 8.43 8.43 0 0 0
121 1 1 0.0 11.24 5.62 0 0 0
122 1 1 2.81 11.24 8.43 0 0 0
123 1 1 0.0 14.05 8.43 0 0 0
124 1 1 2.81 14.05 5.62 0 0 0
125 2 -1 2.81 11.24 5.62 0 0 0
126 2 -1 0.0 14.05 5.62 0 0 0
127 2 -1 0.0 11.24 8.43 0 0 0
128 2 -1 2.81 14.05 8.43 0 0 0
129 1 1 5.62 11.24 5.62 0 0 0
130 1 1 8.43 11.24 8.43 0 0 0
131 1 1 5.62 14.05 8.43 0 0 0
132 1 1 8.43 14.05 5.62 0 0 0
133 2 -1 8.43 11.24 5.62 0 0 0
134 2 -1 5.62 14.05 5.62 0 0 0
135 2 -1 5.62 11.24 8.43 0 0 0
136 2 -1 8.43 14.05 8.43 0 0 0
137 1 1 11.24 11.24 5.62 0 0 0
138 1 1 14.05 11.24 8.43 0 0 0
139 1 1 11.24 14.05 8.43 0 0 0
140 1 1 14.05 14.05 5.62 0 0 0
141 2 -1 14.05 11.24 5.62 0 0 0
142 2 -1 11.24 14.05 5.62 0 0 0
143 2 -1 11.24 11.24 8.43 0 0 0
144 2 -1 14.05 14.05 8.43 0 0 0
145 1 1 0.0 0.0 11.24 0 0 0
146 1 1 2.81 0.0 14.05 0 0 0
147 1 1 0.0 2.81 14.05 0 0 0
148 1 1 2.81 2.81 11.24 0 0 0
149 2 -1 2.81 0.0 11.24 0 0 0
150 2 -1 0.0 2.81 11.24 0 0 0
151 2 -1 0.0 0.0 14.05 0 0 0
152 2 -1 2.81 2.81 14.05 0 0 0
153 1 1 5.62 0.0 11.24 0 0 0
154 1 1 8.43 0.0 14.05 0 0 0
155 1 1 5.62 2.81 14.05 0 0 0
156 1 1 8.43 2.81 11.24 0 0 0
157 2 -1 8.43 0.0 11.24 0 0 0
158 2 -1 5.62 2.81 11.24 0 0 0
159 2 -1 5.62 0.0 14.05 0 0 0
160 2 -1 8.43 2.81 14.05 0 0 0
161 1 1 11.24 0.0 11.24 0 0 0
162 1 1 14.05 0.0 14.05 0 0 0
163 1 1 11.24 2.81 14.05 0 0 0
164 1 1 14.05 2.81 11.24 0 0 0
165 2 -1 14.05 0.0 11.24 0 0 0
166 2 -1 11.24 2.81 11.24 0 0 0
167 2 -1 11.24 0.0 14.05 0 0 0
168 2 -1 14.05 2.81 14.05 0 0 0
169 1 1 0.0 5.62 11.24 0 0 0
170 1 1 2.81 5.62 14.05 0 0 0
171 1 1 0.0 8.43 14.05 0 0 0
172 1 1 2.81 8.43 11.24 0 0 0
173 2 -1 2.81 5.62 11.24 0 0 0
174 2 -1 0.0 8.43 11.24 0 0 0
175 2 -1 0.0 5.62 14.05 0 0 0
176 2 -1 2.81 8.43 14.05 0 0 0
177 1 1 5.62 5.62 11.24 0 0 0
178 1 1 8.43 5.62 14.05 0 0 0
179 1 1 5.62 8.43 14.05 0 0 0
180 1 1 8.43 8.43 11.24 0 0 0
181 2 -1 8.43 5.62 11.24 0 0 0
182 2 -1 5.62 8.43 11.24 0 0 0
183 2 -1 5.62 5.62 14.05 0 0 0
184 2 -1 8.43 8.43 14.05 0 0 0
185 1 1 11.24 5.62 11.24 0 0 0
186 1 1 14.05 5.62 14.05 0 0 0
187 1 1 11.24 8.43 14.05 0 0 0
188 1 1 14.05 8.43 11.24 0 0 0
189 2 -1 14.05 5.62 11.24 0 0 0
190 2 -1 11.24 8.43 11.24 0 0 0
191 2 -1 11.24 5.62 14.05 0 0 0
192 2 -1 14.05 8.43 14.05 0 0 0
193 1 1 0.0 11.24 11.24 0 0 0
194 1 1 2.81 11.24 14.05 0 0 0
195 1 1 0.0 14.05 14.05 0 0 0
196 1 1 2.81 14.05 11.24 0 0 0
197 2 -1 2.81 11.24 11.24 0 0 0
198 2 -1 0.0 14.05 11.24 0 0 0
199 2 -1 0.0 11.24 14.05 0 0 0
200 2 -1 2.81 14.05 14.05 0 0 0
201 1 1 5.62 11.24 11.24 0 0 0
202 1 1 8.43 11.24 14.05 0 0 0
203 1 1 5.62 14.05 14.05 0 0 0
204 1 1 8.43 14.05 11.24 0 0 0
205 2 -1 8.43 11.24 11.24 0 0 0
206 2 -1 5.62 14.05 11.24 0 0 0
207 2 -1 5.62 11.24 14.05 0 0 0
208 2 -1 8.43 14.05 14.05 0 0 0
209 1 1 11.24 11.24 11.24 0 0 0
210 1 1 14.05 11.24 14.05 0 0 0
211 1 1 11.24 14.05 14.05 0 0 0
212 1 1 14.05 14.05 11.24 0 0 0
213 2 -1 14.05 11.24 11.24 0 0 0
214 2 -1 11.24 14.05 11.24 0 0 0
215 2 -1 11.24 11.24 14.05 0 0 0
216 2 -1 14.05 14.05 14.05 0 0 0

Velocities

1 0 0 0
2 0 0 0
3 0 0 0
4 0 0 0
5 0 0 0
6 0 0 0
7 0 0 0
8 0 0 0
9 0 0 0
10 0 0 0
11 0 0 0
12 0 0 0
13 0 0 0
14 0 0 0
15 0 0 0
16 0 0 0
17 0 0 0
18 0 0 0
19 0 0 0
20 0 0 0
21 0 0 0
22 0 0 0
23 0 0 0
24 0 0 0
25 0 0 0
26 0 0 0
27 0 0 0
28 0 0 0
29 0 0 0
30 0 0 0
31 0 0 0
32 0 0 0
33 0 0 0
34 0 0 0
35 0 0 0
36 0 0 0
37 0 0 0
38 0 0 0
39 0 0 0
40 0 0 0
41 0 0 0
42 0 0 0
43 0 0 0
44 0 0 0
45 0 0 0
46 0 0 0
47 0 0 0
48 0 0 0
49 0 0 0
50 0 0 0
51 0 0 0
52 0 0 0
53 0 0 0
54 0 0 0
55 0 0 0
56 0 0 0
57 0 0 0
58 0 0 0
59 0 0 0
60 0 0 0
61 0 0 0
62 0 0 0
63 0 0 0
64 0 0 0
65 0 0 0
66 0 0 0
67 0 0 0
68 0 0 0
69 0 0 0
70 0 0 0
71 0 0 0
72 0 0 0
73 0 0 0
74 0 0 0
75 0 0 0
76 0 0 0
77 0 0 0
78 0 0 0
79 0 0 0
80 0 0 0
81 0 0 0
82 0 0 0
83 0 0 0
84 0 0 0
85 0 0 0
86 0 0 0
87 0 0 0
88 0 0 0
89 0 0 0
90 0 0 0
91 0 0 0
92 0 0 0
93 0 0 0
94 0 0 0
95 0 0 0
96 0 0 0
97 0 0 0
98 0 0 0
99 0 0 0
100 0 0 0
101 0 0 0
102 0 0 0
103 0 0 0
104 0 0 0
105 0 0 0
106 0 0 0
107 0 0 0
108 0 0 0
109 0 0 0
110 0 0 0
111 0 0 0
112 0 0 0
113 0 0 0
114 0 0 0
115 0 0 0
116 0 0 0
117 0 0 0
118 0 0 0
119 0 0 0
120 0 0 0
121 0 0 0
122 0 0 0
123 0 0 0
124 0 0 0
125 0 0 0
126 0 0 0
127 0 0 0
128 0 0 0
129 0 0 0
130 0 0 0
131 0 0 0
132 0 0 0
133 0 0 0
134 0 0 0
135 0 0 0
136 0 0 0
137 0 0 0
138 0 0 0
139 0 0 0
140 0 0 0
141 0 0 0
142 0 0 0
143 0 0 0
144 0 0 0
145 0 0 0
146 0 0 0
147 0 0 0
148 0 0 0
149 0 0 0
150 0 0 0
151 0 0 0
152 0 0 0
153 0 0 0
154 0 0 0
155 0 0 0
156 0 0 0
157 0 0 0
158 0 0 0
159 0 0 0
160 0 0 0
161 0 0 0
162 0 0 0
163 0 0 0
164 0 0 0
165 0 0 0
166 0 0 0
167 0 0 0
168 0 0 0
169 0 0 0
170 0 0 0
171 0 0 0
172 0 0 0
173 0 0 0
174 0 0 0
175 0 0 0
176 0 0 0
177 0 0 0
178 0 0 0
179 0 0 0
180 0 0 0
181 0 0 0
182 0 0 0
183 0 0 0
184 0 0 0
185 0 0 0
186 0 0 0
187 0 0 0
188 0 0 0
189 0 0 0
190 0 0 0
191 0 0 0
192 0 0 0
193 0 0 0
194 0 0 0
195 0 0 0
196 0 0 0
197 0 0 0
198 0 0 0
199 0 0 0
200 0 0 0
201 0 0 0
202 0 0 0
203 0 0 0
204 0 0 0
205 0 0 0
206 0 0 0
207 0 0 0
208 0 0 0
209 0 0 0
210 0 0 0
211 0 0 0
212 0 0 0
213 0 0 0
214 0 0 0
215 0 0 0
216 0 0 0
