LAMMPS (28 Mar 2023 - Development)
OMP_NUM_THREADS environment is not set. Defaulting to 1 thread. (src/comm.cpp:98)
  using 1 OpenMP thread(s) per MPI task
# LAMMPS input script for NaCl crystal simulation with real units

units real
dimension 3
boundary p p p

# Atom definition
atom_style charge
read_data salt6UC.positions
Reading data file ...
  orthogonal box = (0 0 0) to (33.72 33.72 33.72)
  1 by 1 by 1 MPI processor grid
  reading atoms ...
  1728 atoms
  reading velocities ...
  1728 velocities
  read_data CPU = 0.032 seconds

# Define groups
group Na type 1
864 atoms in group Na
group Cl type 2
864 atoms in group Cl

# Set up pair style and coefficients
pair_style lj/cut/coul/long 7.0 10.0
kspace_style ewald 1e-5

#THIS IS NOT REAL JUST FOR SIMPLICITY IN PROJECT
pair_coeff 1 1 0.1 3.492
pair_coeff 1 2 0.1 3.492
pair_coeff 2 2 0.1 3.492


timestep 2.0

compute 1 all pe/atom
compute 2 all pair lj/cut/coul/long ecoul
compute 3 all pair lj/cut/coul/long evdwl
compute 4 all pe
variable elong equal elong


variable T equal 300
velocity all create ${T} 31454 dist gaussian mom yes
velocity all create 300 31454 dist gaussian mom yes


# Run simulation
fix 1 all nve
dump data all custom 1000 dump.atom id q mass x y z fx fy fz c_1
dump_modify data format line "%d %.4f %.4f %.9f %.9f %.9f %.9f %.9f %.9f %9f"
fix eng_print all print 1000 "$(c_2) $(v_elong) $(c_3) $(c_4)" file energy_breakdown.txt
dump_modify data sort id
run 10000
Ewald initialization ...
  using 12-bit tables for long-range coulomb (src/kspace.cpp:342)
  G vector (1/distance) = 0.30830185
  estimated absolute RMS force accuracy = 0.0033902244
  estimated relative force accuracy = 1.020956e-05
  KSpace vectors: actual max1d max3d = 2787 11 6083
                  kxmax kymax kzmax  = 11 11 11
Generated 0 of 1 mixed pair_coeff terms from geometric mixing rule
Neighbor list info ...
  update: every = 1 steps, delay = 0 steps, check = yes
  max neighbors/atom: 2000, page size: 100000
  master list distance cutoff = 12
  ghost atom cutoff = 12
  binsize = 6, bins = 6 6 6
  1 neighbor lists, perpetual/occasional/extra = 1 0 0
  (1) pair lj/cut/coul/long, perpetual
      attributes: half, newton on
      pair build: half/bin/atomonly/newton
      stencil: half/bin/3d
      bin: standard
-78636.412172537267907 -99790.175676249302342 18646.243360399104859 -159780.34448838743265
Per MPI rank memory allocation (min/avg/max) = 24.5 | 24.5 | 24.5 Mbytes
   Step          Temp          E_pair         E_mol          TotEng         Press     
         0   300           -159780.34      0             -158235.99      66172.508    
-78466.431324789722566 -99759.886757128595491 19241.859639987716946 -158984.4584419305902
-78395.93594751994533 -99760.217314781199093 19174.320533583795623 -158981.83272871735971
-78400.359883900935529 -99758.874379396394943 19165.232901418268739 -158994.00136187905446
-78422.673909372548223 -99760.95337571829441 19196.360716763763776 -158987.26656832708977
-78402.572053592521115 -99757.984768949405407 19207.532835050944414 -158953.02398749094573
-78417.258798690279946 -99758.188815584595432 19186.510243548189464 -158988.93737072669319
-78438.221846077314694 -99759.610968909400981 19214.118762955800776 -158983.71405203087488
-78450.514806894745561 -99761.168046314705862 19216.44482242516824 -158995.23803078429773
-78428.202674425614532 -99759.905986277604825 19189.19306840999343 -158998.91559229319682
-78421.100024070154177 -99761.00222639189451 19193.807002348083188 -158988.29524811392184
     10000   149.32308     -158988.3       0             -158219.6       69373.413    
Loop time of 287.824 on 1 procs for 10000 steps with 1728 atoms

Performance: 6.004 ns/day, 3.998 hours/ns, 34.743 timesteps/s, 60.037 katom-step/s
100.0% CPU use with 1 MPI tasks x 1 OpenMP threads

MPI task timing breakdown:
Section |  min time  |  avg time  |  max time  |%varavg| %total
---------------------------------------------------------------
Pair    | 34.94      | 34.94      | 34.94      |   0.0 | 12.14
Kspace  | 252.19     | 252.19     | 252.19     |   0.0 | 87.62
Neigh   | 0          | 0          | 0          |   0.0 |  0.00
Comm    | 0.3557     | 0.3557     | 0.3557     |   0.0 |  0.12
Output  | 0.090432   | 0.090432   | 0.090432   |   0.0 |  0.03
Modify  | 0.1425     | 0.1425     | 0.1425     |   0.0 |  0.05
Other   |            | 0.106      |            |       |  0.04

Nlocal:           1728 ave        1728 max        1728 min
Histogram: 1 0 0 0 0 0 0 0 0 0
Nghost:           7533 ave        7533 max        7533 min
Histogram: 1 0 0 0 0 0 0 0 0 0
Neighs:         293760 ave      293760 max      293760 min
Histogram: 1 0 0 0 0 0 0 0 0 0

Total # of neighbors = 293760
Ave neighs/atom = 170
Neighbor list builds = 0
Dangerous builds = 0
Total wall time: 0:04:48
