ITEM: TIMESTEP
0
ITEM: NUMBER OF ATOMS
2744
ITEM: BOX BOUNDS pp pp pp
0.0000000000000000e+00 3.9340000000000003e+01
0.0000000000000000e+00 3.9340000000000003e+01
0.0000000000000000e+00 3.9340000000000003e+01
ITEM: ATOMS id q mass x y z fx fy fz c_1
1 1.0000 22.9897 0.000000000 0.000000000 0.000000000 -0.000000000 -0.000000000 -0.000000000 -92.475925
2 1.0000 22.9897 2.810000000 0.000000000 2.810000000 -0.000000000 -0.000000000 -0.000000000 -92.475925
3 1.0000 22.9897 0.000000000 2.810000000 2.810000000 -0.000000000 -0.000000000 -0.000000000 -92.475925
4 1.0000 22.9897 2.810000000 2.810000000 0.000000000 -0.000000000 -0.000000000 -0.000000000 -92.475925
5 -1.0000 35.4530 2.810000000 0.000000000 0.000000000 0.000000000 -0.000000000 -0.000000000 -92.475925
6 -1.0000 35.4530 0.000000000 2.810000000 0.000000000 -0.000000000 0.000000000 -0.000000000 -92.475925
7 -1.0000 35.4530 0.000000000 0.000000000 2.810000000 -0.000000000 -0.000000000 0.000000000 -92.475925
8 -1.0000 35.4530 2.810000000 2.810000000 2.810000000 0.000000000 0.000000000 0.000000000 -92.475925
9 1.0000 22.9897 5.620000000 0.000000000 0.000000000 -0.000000000 -0.000000000 -0.000000000 -92.475925
10 1.0000 22.9897 8.430000000 0.000000000 2.810000000 0.000000000 -0.000000000 -0.000000000 -92.475925
11 1.0000 22.9897 5.620000000 2.810000000 2.810000000 -0.000000000 -0.000000000 0.000000000 -92.475925
12 1.0000 22.9897 8.430000000 2.810000000 0.000000000 0.000000000 -0.000000000 -0.000000000 -92.475925
13 -1.0000 35.4530 8.430000000 0.000000000 0.000000000 0.000000000 -0.000000000 -0.000000000 -92.475925
14 -1.0000 35.4530 5.620000000 2.810000000 0.000000000 -0.000000000 0.000000000 -0.000000000 -92.475925
15 -1.0000 35.4530 5.620000000 0.000000000 2.810000000 -0.000000000 -0.000000000 0.000000000 -92.475925
16 -1.0000 35.4530 8.430000000 2.810000000 2.810000000 0.000000000 -0.000000000 -0.000000000 -92.475925
17 1.0000 22.9897 11.240000000 0.000000000 0.000000000 0.000000000 -0.000000000 -0.000000000 -92.475925
18 1.0000 22.9897 14.050000000 0.000000000 2.810000000 -0.000000000 -0.000000000 -0.000000000 -92.475925
19 1.0000 22.9897 11.240000000 2.810000000 2.810000000 0.000000000 -0.000000000 -0.000000000 -92.475925
20 1.0000 22.9897 14.050000000 2.810000000 0.000000000 -0.000000000 -0.000000000 -0.000000000 -92.475925
21 -1.0000 35.4530 14.050000000 0.000000000 0.000000000 -0.000000000 -0.000000000 -0.000000000 -92.475925
22 -1.0000 35.4530 11.240000000 2.810000000 0.000000000 -0.000000000 0.000000000 -0.000000000 -92.475925
23 -1.0000 35.4530 11.240000000 0.000000000 2.810000000 -0.000000000 -0.000000000 0.000000000 -92.475925
24 -1.0000 35.4530 14.050000000 2.810000000 2.810000000 -0.000000000 0.000000000 0.000000000 -92.475925
25 1.0000 22.9897 16.860000000 0.000000000 0.000000000 0.000000000 -0.000000000 -0.000000000 -92.475925
26 1.0000 22.9897 19.670000000 0.000000000 2.810000000 -0.000000000 -0.000000000 0.000000000 -92.475925
27 1.0000 22.9897 16.860000000 2.810000000 2.810000000 0.000000000 -0.000000000 -0.000000000 -92.475925
28 1.0000 22.9897 19.670000000 2.810000000 0.000000000 -0.000000000 0.000000000 -0.000000000 -92.475925
29 -1.0000 35.4530 19.670000000 0.000000000 0.000000000 -0.000000000 -0.000000000 -0.000000000 -92.475925
30 -1.0000 35.4530 16.860000000 2.810000000 0.000000000 0.000000000 -0.000000000 -0.000000000 -92.475925
31 -1.0000 35.4530 16.860000000 0.000000000 2.810000000 0.000000000 -0.000000000 0.000000000 -92.475925
32 -1.0000 35.4530 19.670000000 2.810000000 2.810000000 -0.000000000 -0.000000000 -0.000000000 -92.475925
33 1.0000 22.9897 22.480000000 0.000000000 0.000000000 -0.000000000 -0.000000000 -0.000000000 -92.475925
34 1.0000 22.9897 25.290000000 0.000000000 2.810000000 0.000000000 -0.000000000 0.000000000 -92.475925
35 1.0000 22.9897 22.480000000 2.810000000 2.810000000 -0.000000000 0.000000000 0.000000000 -92.475925
36 1.0000 22.9897 25.290000000 2.810000000 0.000000000 0.000000000 0.000000000 -0.000000000 -92.475925
37 -1.0000 35.4530 25.290000000 0.000000000 0.000000000 0.000000000 -0.000000000 -0.000000000 -92.475925
38 -1.0000 35.4530 22.480000000 2.810000000 0.000000000 0.000000000 -0.000000000 -0.000000000 -92.475925
39 -1.0000 35.4530 22.480000000 0.000000000 2.810000000 0.000000000 -0.000000000 -0.000000000 -92.475925
40 -1.0000 35.4530 25.290000000 2.810000000 2.810000000 0.000000000 -0.000000000 -0.000000000 -92.475925
41 1.0000 22.9897 28.100000000 0.000000000 0.000000000 -0.000000000 -0.000000000 -0.000000000 -92.475925
42 1.0000 22.9897 30.910000000 0.000000000 2.810000000 0.000000000 -0.000000000 0.000000000 -92.475925
43 1.0000 22.9897 28.100000000 2.810000000 2.810000000 -0.000000000 0.000000000 0.000000000 -92.475925
44 1.0000 22.9897 30.910000000 2.810000000 0.000000000 0.000000000 -0.000000000 -0.000000000 -92.475925
45 -1.0000 35.4530 30.910000000 0.000000000 0.000000000 -0.000000000 -0.000000000 -0.000000000 -92.475925
46 -1.0000 35.4530 28.100000000 2.810000000 0.000000000 -0.000000000 -0.000000000 -0.000000000 -92.475925
47 -1.0000 35.4530 28.100000000 0.000000000 2.810000000 -0.000000000 -0.000000000 -0.000000000 -92.475925
48 -1.0000 35.4530 30.910000000 2.810000000 2.810000000 -0.000000000 -0.000000000 -0.000000000 -92.475925
49 1.0000 22.9897 33.720000000 0.000000000 0.000000000 0.000000000 -0.000000000 -0.000000000 -92.475925
50 1.0000 22.9897 36.530000000 0.000000000 2.810000000 0.000000000 -0.000000000 0.000000000 -92.475925
51 1.0000 22.9897 33.720000000 2.810000000 2.810000000 0.000000000 -0.000000000 0.000000000 -92.475925
52 1.0000 22.9897 36.530000000 2.810000000 0.000000000 0.000000000 -0.000000000 -0.000000000 -92.475925
53 -1.0000 35.4530 36.530000000 0.000000000 0.000000000 -0.000000000 -0.000000000 -0.000000000 -92.475925
54 -1.0000 35.4530 33.720000000 2.810000000 0.000000000 0.000000000 0.000000000 -0.000000000 -92.475925
55 -1.0000 35.4530 33.720000000 0.000000000 2.810000000 0.000000000 -0.000000000 -0.000000000 -92.475925
56 -1.0000 35.4530 36.530000000 2.810000000 2.810000000 -0.000000000 0.000000000 0.000000000 -92.475925
57 1.0000 22.9897 0.000000000 5.620000000 0.000000000 -0.000000000 -0.000000000 -0.000000000 -92.475925
58 1.0000 22.9897 2.810000000 5.620000000 2.810000000 -0.000000000 -0.000000000 0.000000000 -92.475925
59 1.0000 22.9897 0.000000000 8.430000000 2.810000000 -0.000000000 0.000000000 -0.000000000 -92.475925
60 1.0000 22.9897 2.810000000 8.430000000 0.000000000 -0.000000000 0.000000000 -0.000000000 -92.475925
61 -1.0000 35.4530 2.810000000 5.620000000 0.000000000 0.000000000 -0.000000000 -0.000000000 -92.475925
62 -1.0000 35.4530 0.000000000 8.430000000 0.000000000 -0.000000000 0.000000000 -0.000000000 -92.475925
63 -1.0000 35.4530 0.000000000 5.620000000 2.810000000 -0.000000000 -0.000000000 0.000000000 -92.475925
64 -1.0000 35.4530 2.810000000 8.430000000 2.810000000 0.000000000 0.000000000 -0.000000000 -92.475925
65 1.0000 22.9897 5.620000000 5.620000000 0.000000000 -0.000000000 -0.000000000 -0.000000000 -92.475925
66 1.0000 22.9897 8.430000000 5.620000000 2.810000000 0.000000000 -0.000000000 0.000000000 -92.475925
67 1.0000 22.9897 5.620000000 8.430000000 2.810000000 -0.000000000 0.000000000 0.000000000 -92.475925
68 1.0000 22.9897 8.430000000 8.430000000 0.000000000 0.000000000 0.000000000 -0.000000000 -92.475925
69 -1.0000 35.4530 8.430000000 5.620000000 0.000000000 0.000000000 -0.000000000 -0.000000000 -92.475925
70 -1.0000 35.4530 5.620000000 8.430000000 0.000000000 -0.000000000 0.000000000 -0.000000000 -92.475925
71 -1.0000 35.4530 5.620000000 5.620000000 2.810000000 -0.000000000 -0.000000000 -0.000000000 -92.475925
72 -1.0000 35.4530 8.430000000 8.430000000 2.810000000 0.000000000 0.000000000 -0.000000000 -92.475925
73 1.0000 22.9897 11.240000000 5.620000000 0.000000000 0.000000000 -0.000000000 -0.000000000 -92.475925
74 1.0000 22.9897 14.050000000 5.620000000 2.810000000 -0.000000000 -0.000000000 -0.000000000 -92.475925
75 1.0000 22.9897 11.240000000 8.430000000 2.810000000 -0.000000000 0.000000000 0.000000000 -92.475925
76 1.0000 22.9897 14.050000000 8.430000000 0.000000000 -0.000000000 0.000000000 -0.000000000 -92.475925
77 -1.0000 35.4530 14.050000000 5.620000000 0.000000000 -0.000000000 -0.000000000 -0.000000000 -92.475925
78 -1.0000 35.4530 11.240000000 8.430000000 0.000000000 -0.000000000 0.000000000 -0.000000000 -92.475925
79 -1.0000 35.4530 11.240000000 5.620000000 2.810000000 -0.000000000 -0.000000000 0.000000000 -92.475925
80 -1.0000 35.4530 14.050000000 8.430000000 2.810000000 -0.000000000 0.000000000 0.000000000 -92.475925
81 1.0000 22.9897 16.860000000 5.620000000 0.000000000 0.000000000 -0.000000000 -0.000000000 -92.475925
82 1.0000 22.9897 19.670000000 5.620000000 2.810000000 -0.000000000 -0.000000000 -0.000000000 -92.475925
83 1.0000 22.9897 16.860000000 8.430000000 2.810000000 0.000000000 0.000000000 -0.000000000 -92.475925
84 1.0000 22.9897 19.670000000 8.430000000 0.000000000 -0.000000000 0.000000000 -0.000000000 -92.475925
85 -1.0000 35.4530 19.670000000 5.620000000 0.000000000 -0.000000000 -0.000000000 -0.000000000 -92.475925
86 -1.0000 35.4530 16.860000000 8.430000000 0.000000000 0.000000000 0.000000000 -0.000000000 -92.475925
87 -1.0000 35.4530 16.860000000 5.620000000 2.810000000 0.000000000 -0.000000000 0.000000000 -92.475925
88 -1.0000 35.4530 19.670000000 8.430000000 2.810000000 -0.000000000 0.000000000 -0.000000000 -92.475925
89 1.0000 22.9897 22.480000000 5.620000000 0.000000000 -0.000000000 -0.000000000 -0.000000000 -92.475925
90 1.0000 22.9897 25.290000000 5.620000000 2.810000000 0.000000000 -0.000000000 0.000000000 -92.475925
91 1.0000 22.9897 22.480000000 8.430000000 2.810000000 0.000000000 0.000000000 -0.000000000 -92.475925
92 1.0000 22.9897 25.290000000 8.430000000 0.000000000 0.000000000 0.000000000 -0.000000000 -92.475925
93 -1.0000 35.4530 25.290000000 5.620000000 0.000000000 0.000000000 -0.000000000 -0.000000000 -92.475925
94 -1.0000 35.4530 22.480000000 8.430000000 0.000000000 0.000000000 0.000000000 -0.000000000 -92.475925
95 -1.0000 35.4530 22.480000000 5.620000000 2.810000000 0.000000000 -0.000000000 -0.000000000 -92.475925
96 -1.0000 35.4530 25.290000000 8.430000000 2.810000000 0.000000000 0.000000000 -0.000000000 -92.475925
97 1.0000 22.9897 28.100000000 5.620000000 0.000000000 -0.000000000 -0.000000000 -0.000000000 -92.475925
98 1.0000 22.9897 30.910000000 5.620000000 2.810000000 0.000000000 -0.000000000 0.000000000 -92.475925
99 1.0000 22.9897 28.100000000 8.430000000 2.810000000 -0.000000000 0.000000000 0.000000000 -92.475925
100 1.0000 22.9897 30.910000000 8.430000000 0.000000000 0.000000000 0.000000000 -0.000000000 -92.475925
101 -1.0000 35.4530 30.910000000 5.620000000 0.000000000 -0.000000000 -0.000000000 -0.000000000 -92.475925
102 -1.0000 35.4530 28.100000000 8.430000000 0.000000000 -0.000000000 0.000000000 -0.000000000 -92.475925
103 -1.0000 35.4530 28.100000000 5.620000000 2.810000000 -0.000000000 -0.000000000 -0.000000000 -92.475925
104 -1.0000 35.4530 30.910000000 8.430000000 2.810000000 -0.000000000 0.000000000 -0.000000000 -92.475925
105 1.0000 22.9897 33.720000000 5.620000000 0.000000000 0.000000000 -0.000000000 -0.000000000 -92.475925
106 1.0000 22.9897 36.530000000 5.620000000 2.810000000 0.000000000 -0.000000000 -0.000000000 -92.475925
107 1.0000 22.9897 33.720000000 8.430000000 2.810000000 0.000000000 0.000000000 -0.000000000 -92.475925
108 1.0000 22.9897 36.530000000 8.430000000 0.000000000 0.000000000 0.000000000 -0.000000000 -92.475925
109 -1.0000 35.4530 36.530000000 5.620000000 0.000000000 -0.000000000 -0.000000000 -0.000000000 -92.475925
110 -1.0000 35.4530 33.720000000 8.430000000 0.000000000 0.000000000 0.000000000 -0.000000000 -92.475925
111 -1.0000 35.4530 33.720000000 5.620000000 2.810000000 0.000000000 -0.000000000 0.000000000 -92.475925
112 -1.0000 35.4530 36.530000000 8.430000000 2.810000000 -0.000000000 0.000000000 0.000000000 -92.475925
113 1.0000 22.9897 0.000000000 11.240000000 0.000000000 -0.000000000 -0.000000000 -0.000000000 -92.475925
114 1.0000 22.9897 2.810000000 11.240000000 2.810000000 -0.000000000 -0.000000000 0.000000000 -92.475925
115 1.0000 22.9897 0.000000000 14.050000000 2.810000000 -0.000000000 -0.000000000 -0.000000000 -92.475925
116 1.0000 22.9897 2.810000000 14.050000000 0.000000000 -0.000000000 -0.000000000 -0.000000000 -92.475925
117 -1.0000 35.4530 2.810000000 11.240000000 0.000000000 0.000000000 0.000000000 -0.000000000 -92.475925
118 -1.0000 35.4530 0.000000000 14.050000000 0.000000000 -0.000000000 -0.000000000 -0.000000000 -92.475925
119 -1.0000 35.4530 0.000000000 11.240000000 2.810000000 -0.000000000 0.000000000 0.000000000 -92.475925
120 -1.0000 35.4530 2.810000000 14.050000000 2.810000000 0.000000000 -0.000000000 0.000000000 -92.475925
121 1.0000 22.9897 5.620000000 11.240000000 0.000000000 -0.000000000 -0.000000000 -0.000000000 -92.475925
122 1.0000 22.9897 8.430000000 11.240000000 2.810000000 0.000000000 -0.000000000 0.000000000 -92.475925
123 1.0000 22.9897 5.620000000 14.050000000 2.810000000 -0.000000000 -0.000000000 -0.000000000 -92.475925
124 1.0000 22.9897 8.430000000 14.050000000 0.000000000 0.000000000 -0.000000000 -0.000000000 -92.475925
125 -1.0000 35.4530 8.430000000 11.240000000 0.000000000 0.000000000 0.000000000 -0.000000000 -92.475925
126 -1.0000 35.4530 5.620000000 14.050000000 0.000000000 -0.000000000 -0.000000000 -0.000000000 -92.475925
127 -1.0000 35.4530 5.620000000 11.240000000 2.810000000 -0.000000000 0.000000000 -0.000000000 -92.475925
128 -1.0000 35.4530 8.430000000 14.050000000 2.810000000 0.000000000 -0.000000000 -0.000000000 -92.475925
129 1.0000 22.9897 11.240000000 11.240000000 0.000000000 0.000000000 -0.000000000 -0.000000000 -92.475925
130 1.0000 22.9897 14.050000000 11.240000000 2.810000000 -0.000000000 -0.000000000 -0.000000000 -92.475925
131 1.0000 22.9897 11.240000000 14.050000000 2.810000000 -0.000000000 -0.000000000 -0.000000000 -92.475925
132 1.0000 22.9897 14.050000000 14.050000000 0.000000000 -0.000000000 -0.000000000 -0.000000000 -92.475925
133 -1.0000 35.4530 14.050000000 11.240000000 0.000000000 -0.000000000 0.000000000 -0.000000000 -92.475925
134 -1.0000 35.4530 11.240000000 14.050000000 0.000000000 -0.000000000 -0.000000000 -0.000000000 -92.475925
135 -1.0000 35.4530 11.240000000 11.240000000 2.810000000 0.000000000 0.000000000 0.000000000 -92.475925
136 -1.0000 35.4530 14.050000000 14.050000000 2.810000000 -0.000000000 -0.000000000 -0.000000000 -92.475925
137 1.0000 22.9897 16.860000000 11.240000000 0.000000000 0.000000000 -0.000000000 -0.000000000 -92.475925
138 1.0000 22.9897 19.670000000 11.240000000 2.810000000 -0.000000000 -0.000000000 -0.000000000 -92.475925
139 1.0000 22.9897 16.860000000 14.050000000 2.810000000 0.000000000 -0.000000000 -0.000000000 -92.475925
140 1.0000 22.9897 19.670000000 14.050000000 0.000000000 -0.000000000 -0.000000000 -0.000000000 -92.475925
141 -1.0000 35.4530 19.670000000 11.240000000 0.000000000 -0.000000000 0.000000000 -0.000000000 -92.475925
142 -1.0000 35.4530 16.860000000 14.050000000 0.000000000 0.000000000 -0.000000000 -0.000000000 -92.475925
143 -1.0000 35.4530 16.860000000 11.240000000 2.810000000 0.000000000 0.000000000 0.000000000 -92.475925
144 -1.0000 35.4530 19.670000000 14.050000000 2.810000000 -0.000000000 -0.000000000 -0.000000000 -92.475925
145 1.0000 22.9897 22.480000000 11.240000000 0.000000000 0.000000000 -0.000000000 -0.000000000 -92.475925
146 1.0000 22.9897 25.290000000 11.240000000 2.810000000 0.000000000 -0.000000000 -0.000000000 -92.475925
147 1.0000 22.9897 22.480000000 14.050000000 2.810000000 0.000000000 -0.000000000 -0.000000000 -92.475925
148 1.0000 22.9897 25.290000000 14.050000000 0.000000000 0.000000000 -0.000000000 -0.000000000 -92.475925
149 -1.0000 35.4530 25.290000000 11.240000000 0.000000000 0.000000000 -0.000000000 -0.000000000 -92.475925
150 -1.0000 35.4530 22.480000000 14.050000000 0.000000000 -0.000000000 -0.000000000 -0.000000000 -92.475925
151 -1.0000 35.4530 22.480000000 11.240000000 2.810000000 -0.000000000 0.000000000 -0.000000000 -92.475925
152 -1.0000 35.4530 25.290000000 14.050000000 2.810000000 0.000000000 -0.000000000 0.000000000 -92.475925
153 1.0000 22.9897 28.100000000 11.240000000 0.000000000 -0.000000000 0.000000000 -0.000000000 -92.475925
154 1.0000 22.9897 30.910000000 11.240000000 2.810000000 -0.000000000 0.000000000 0.000000000 -92.475925
155 1.0000 22.9897 28.100000000 14.050000000 2.810000000 -0.000000000 -0.000000000 -0.000000000 -92.475925
156 1.0000 22.9897 30.910000000 14.050000000 0.000000000 -0.000000000 -0.000000000 -0.000000000 -92.475925
157 -1.0000 35.4530 30.910000000 11.240000000 0.000000000 0.000000000 -0.000000000 -0.000000000 -92.475925
158 -1.0000 35.4530 28.100000000 14.050000000 0.000000000 -0.000000000 -0.000000000 -0.000000000 -92.475925
159 -1.0000 35.4530 28.100000000 11.240000000 2.810000000 -0.000000000 -0.000000000 -0.000000000 -92.475925
160 -1.0000 35.4530 30.910000000 14.050000000 2.810000000 0.000000000 -0.000000000 -0.000000000 -92.475925
161 1.0000 22.9897 33.720000000 11.240000000 0.000000000 0.000000000 0.000000000 -0.000000000 -92.475925
162 1.0000 22.9897 36.530000000 11.240000000 2.810000000 0.000000000 -0.000000000 -0.000000000 -92.475925
163 1.0000 22.9897 33.720000000 14.050000000 2.810000000 0.000000000 -0.000000000 0.000000000 -92.475925
164 1.0000 22.9897 36.530000000 14.050000000 0.000000000 0.000000000 -0.000000000 -0.000000000 -92.475925
165 -1.0000 35.4530 36.530000000 11.240000000 0.000000000 -0.000000000 0.000000000 -0.000000000 -92.475925
166 -1.0000 35.4530 33.720000000 14.050000000 0.000000000 0.000000000 -0.000000000 -0.000000000 -92.475925
167 -1.0000 35.4530 33.720000000 11.240000000 2.810000000 0.000000000 -0.000000000 -0.000000000 -92.475925
168 -1.0000 35.4530 36.530000000 14.050000000 2.810000000 0.000000000 -0.000000000 -0.000000000 -92.475925
169 1.0000 22.9897 0.000000000 16.860000000 0.000000000 -0.000000000 0.000000000 -0.000000000 -92.475925
170 1.0000 22.9897 2.810000000 16.860000000 2.810000000 0.000000000 0.000000000 -0.000000000 -92.475925
171 1.0000 22.9897 0.000000000 19.670000000 2.810000000 -0.000000000 -0.000000000 -0.000000000 -92.475925
172 1.0000 22.9897 2.810000000 19.670000000 0.000000000 -0.000000000 -0.000000000 -0.000000000 -92.475925
173 -1.0000 35.4530 2.810000000 16.860000000 0.000000000 0.000000000 0.000000000 -0.000000000 -92.475925
174 -1.0000 35.4530 0.000000000 19.670000000 0.000000000 -0.000000000 -0.000000000 -0.000000000 -92.475925
175 -1.0000 35.4530 0.000000000 16.860000000 2.810000000 -0.000000000 0.000000000 -0.000000000 -92.475925
176 -1.0000 35.4530 2.810000000 19.670000000 2.810000000 -0.000000000 -0.000000000 -0.000000000 -92.475925
177 1.0000 22.9897 5.620000000 16.860000000 0.000000000 -0.000000000 0.000000000 -0.000000000 -92.475925
178 1.0000 22.9897 8.430000000 16.860000000 2.810000000 0.000000000 0.000000000 0.000000000 -92.475925
179 1.0000 22.9897 5.620000000 19.670000000 2.810000000 -0.000000000 -0.000000000 0.000000000 -92.475925
180 1.0000 22.9897 8.430000000 19.670000000 0.000000000 0.000000000 -0.000000000 -0.000000000 -92.475925
181 -1.0000 35.4530 8.430000000 16.860000000 0.000000000 0.000000000 0.000000000 -0.000000000 -92.475925
182 -1.0000 35.4530 5.620000000 19.670000000 0.000000000 -0.000000000 -0.000000000 -0.000000000 -92.475925
183 -1.0000 35.4530 5.620000000 16.860000000 2.810000000 -0.000000000 0.000000000 -0.000000000 -92.475925
184 -1.0000 35.4530 8.430000000 19.670000000 2.810000000 0.000000000 -0.000000000 -0.000000000 -92.475925
185 1.0000 22.9897 11.240000000 16.860000000 0.000000000 0.000000000 0.000000000 -0.000000000 -92.475925
186 1.0000 22.9897 14.050000000 16.860000000 2.810000000 -0.000000000 0.000000000 -0.000000000 -92.475925
187 1.0000 22.9897 11.240000000 19.670000000 2.810000000 -0.000000000 -0.000000000 0.000000000 -92.475925
188 1.0000 22.9897 14.050000000 19.670000000 0.000000000 -0.000000000 -0.000000000 -0.000000000 -92.475925
189 -1.0000 35.4530 14.050000000 16.860000000 0.000000000 -0.000000000 0.000000000 -0.000000000 -92.475925
190 -1.0000 35.4530 11.240000000 19.670000000 0.000000000 -0.000000000 -0.000000000 -0.000000000 -92.475925
191 -1.0000 35.4530 11.240000000 16.860000000 2.810000000 -0.000000000 0.000000000 -0.000000000 -92.475925
192 -1.0000 35.4530 14.050000000 19.670000000 2.810000000 -0.000000000 -0.000000000 -0.000000000 -92.475925
193 1.0000 22.9897 16.860000000 16.860000000 0.000000000 0.000000000 0.000000000 -0.000000000 -92.475925
194 1.0000 22.9897 19.670000000 16.860000000 2.810000000 -0.000000000 0.000000000 -0.000000000 -92.475925
195 1.0000 22.9897 16.860000000 19.670000000 2.810000000 0.000000000 -0.000000000 0.000000000 -92.475925
196 1.0000 22.9897 19.670000000 19.670000000 0.000000000 -0.000000000 -0.000000000 -0.000000000 -92.475925
197 -1.0000 35.4530 19.670000000 16.860000000 0.000000000 -0.000000000 0.000000000 -0.000000000 -92.475925
198 -1.0000 35.4530 16.860000000 19.670000000 0.000000000 0.000000000 -0.000000000 -0.000000000 -92.475925
199 -1.0000 35.4530 16.860000000 16.860000000 2.810000000 0.000000000 0.000000000 -0.000000000 -92.475925
200 -1.0000 35.4530 19.670000000 19.670000000 2.810000000 -0.000000000 -0.000000000 0.000000000 -92.475925
201 1.0000 22.9897 22.480000000 16.860000000 0.000000000 0.000000000 0.000000000 -0.000000000 -92.475925
202 1.0000 22.9897 25.290000000 16.860000000 2.810000000 0.000000000 0.000000000 -0.000000000 -92.475925
203 1.0000 22.9897 22.480000000 19.670000000 2.810000000 0.000000000 -0.000000000 -0.000000000 -92.475925
204 1.0000 22.9897 25.290000000 19.670000000 0.000000000 0.000000000 -0.000000000 -0.000000000 -92.475925
205 -1.0000 35.4530 25.290000000 16.860000000 0.000000000 0.000000000 0.000000000 -0.000000000 -92.475925
206 -1.0000 35.4530 22.480000000 19.670000000 0.000000000 -0.000000000 -0.000000000 -0.000000000 -92.475925
207 -1.0000 35.4530 22.480000000 16.860000000 2.810000000 -0.000000000 0.000000000 -0.000000000 -92.475925
208 -1.0000 35.4530 25.290000000 19.670000000 2.810000000 0.000000000 -0.000000000 0.000000000 -92.475925
209 1.0000 22.9897 28.100000000 16.860000000 0.000000000 -0.000000000 0.000000000 -0.000000000 -92.475925
210 1.0000 22.9897 30.910000000 16.860000000 2.810000000 -0.000000000 0.000000000 -0.000000000 -92.475925
211 1.0000 22.9897 28.100000000 19.670000000 2.810000000 -0.000000000 -0.000000000 -0.000000000 -92.475925
212 1.0000 22.9897 30.910000000 19.670000000 0.000000000 -0.000000000 -0.000000000 -0.000000000 -92.475925
213 -1.0000 35.4530 30.910000000 16.860000000 0.000000000 0.000000000 0.000000000 -0.000000000 -92.475925
214 -1.0000 35.4530 28.100000000 19.670000000 0.000000000 -0.000000000 -0.000000000 -0.000000000 -92.475925
215 -1.0000 35.4530 28.100000000 16.860000000 2.810000000 -0.000000000 0.000000000 0.000000000 -92.475925
216 -1.0000 35.4530 30.910000000 19.670000000 2.810000000 0.000000000 -0.000000000 -0.000000000 -92.475925
217 1.0000 22.9897 33.720000000 16.860000000 0.000000000 0.000000000 0.000000000 -0.000000000 -92.475925
218 1.0000 22.9897 36.530000000 16.860000000 2.810000000 -0.000000000 0.000000000 0.000000000 -92.475925
219 1.0000 22.9897 33.720000000 19.670000000 2.810000000 0.000000000 -0.000000000 0.000000000 -92.475925
220 1.0000 22.9897 36.530000000 19.670000000 0.000000000 -0.000000000 -0.000000000 -0.000000000 -92.475925
221 -1.0000 35.4530 36.530000000 16.860000000 0.000000000 0.000000000 0.000000000 -0.000000000 -92.475925
222 -1.0000 35.4530 33.720000000 19.670000000 0.000000000 0.000000000 -0.000000000 -0.000000000 -92.475925
223 -1.0000 35.4530 33.720000000 16.860000000 2.810000000 0.000000000 0.000000000 -0.000000000 -92.475925
224 -1.0000 35.4530 36.530000000 19.670000000 2.810000000 0.000000000 -0.000000000 -0.000000000 -92.475925
225 1.0000 22.9897 0.000000000 22.480000000 0.000000000 -0.000000000 -0.000000000 -0.000000000 -92.475925
226 1.0000 22.9897 2.810000000 22.480000000 2.810000000 0.000000000 -0.000000000 0.000000000 -92.475925
227 1.0000 22.9897 0.000000000 25.290000000 2.810000000 -0.000000000 0.000000000 0.000000000 -92.475925
228 1.0000 22.9897 2.810000000 25.290000000 0.000000000 0.000000000 0.000000000 -0.000000000 -92.475925
229 -1.0000 35.4530 2.810000000 22.480000000 0.000000000 -0.000000000 0.000000000 -0.000000000 -92.475925
230 -1.0000 35.4530 0.000000000 25.290000000 0.000000000 -0.000000000 0.000000000 -0.000000000 -92.475925
231 -1.0000 35.4530 0.000000000 22.480000000 2.810000000 -0.000000000 -0.000000000 -0.000000000 -92.475925
232 -1.0000 35.4530 2.810000000 25.290000000 2.810000000 -0.000000000 0.000000000 -0.000000000 -92.475925
233 1.0000 22.9897 5.620000000 22.480000000 0.000000000 -0.000000000 -0.000000000 -0.000000000 -92.475925
234 1.0000 22.9897 8.430000000 22.480000000 2.810000000 0.000000000 -0.000000000 0.000000000 -92.475925
235 1.0000 22.9897 5.620000000 25.290000000 2.810000000 -0.000000000 0.000000000 0.000000000 -92.475925
236 1.0000 22.9897 8.430000000 25.290000000 0.000000000 0.000000000 0.000000000 -0.000000000 -92.475925
237 -1.0000 35.4530 8.430000000 22.480000000 0.000000000 0.000000000 -0.000000000 -0.000000000 -92.475925
238 -1.0000 35.4530 5.620000000 25.290000000 0.000000000 -0.000000000 0.000000000 -0.000000000 -92.475925
239 -1.0000 35.4530 5.620000000 22.480000000 2.810000000 -0.000000000 0.000000000 -0.000000000 -92.475925
240 -1.0000 35.4530 8.430000000 25.290000000 2.810000000 0.000000000 0.000000000 -0.000000000 -92.475925
241 1.0000 22.9897 11.240000000 22.480000000 0.000000000 -0.000000000 0.000000000 -0.000000000 -92.475925
242 1.0000 22.9897 14.050000000 22.480000000 2.810000000 -0.000000000 -0.000000000 -0.000000000 -92.475925
243 1.0000 22.9897 11.240000000 25.290000000 2.810000000 0.000000000 0.000000000 0.000000000 -92.475925
244 1.0000 22.9897 14.050000000 25.290000000 0.000000000 -0.000000000 0.000000000 -0.000000000 -92.475925
245 -1.0000 35.4530 14.050000000 22.480000000 0.000000000 -0.000000000 -0.000000000 -0.000000000 -92.475925
246 -1.0000 35.4530 11.240000000 25.290000000 0.000000000 0.000000000 0.000000000 -0.000000000 -92.475925
247 -1.0000 35.4530 11.240000000 22.480000000 2.810000000 0.000000000 0.000000000 -0.000000000 -92.475925
248 -1.0000 35.4530 14.050000000 25.290000000 2.810000000 -0.000000000 0.000000000 -0.000000000 -92.475925
249 1.0000 22.9897 16.860000000 22.480000000 0.000000000 0.000000000 0.000000000 -0.000000000 -92.475925
250 1.0000 22.9897 19.670000000 22.480000000 2.810000000 -0.000000000 0.000000000 -0.000000000 -92.475925
251 1.0000 22.9897 16.860000000 25.290000000 2.810000000 0.000000000 0.000000000 0.000000000 -92.475925
252 1.0000 22.9897 19.670000000 25.290000000 0.000000000 -0.000000000 0.000000000 -0.000000000 -92.475925
253 -1.0000 35.4530 19.670000000 22.480000000 0.000000000 -0.000000000 -0.000000000 -0.000000000 -92.475925
254 -1.0000 35.4530 16.860000000 25.290000000 0.000000000 0.000000000 0.000000000 -0.000000000 -92.475925
255 -1.0000 35.4530 16.860000000 22.480000000 2.810000000 0.000000000 -0.000000000 -0.000000000 -92.475925
256 -1.0000 35.4530 19.670000000 25.290000000 2.810000000 -0.000000000 0.000000000 -0.000000000 -92.475925
257 1.0000 22.9897 22.480000000 22.480000000 0.000000000 0.000000000 0.000000000 -0.000000000 -92.475925
258 1.0000 22.9897 25.290000000 22.480000000 2.810000000 0.000000000 -0.000000000 -0.000000000 -92.475925
259 1.0000 22.9897 22.480000000 25.290000000 2.810000000 0.000000000 0.000000000 -0.000000000 -92.475925
260 1.0000 22.9897 25.290000000 25.290000000 0.000000000 0.000000000 0.000000000 -0.000000000 -92.475925
261 -1.0000 35.4530 25.290000000 22.480000000 0.000000000 0.000000000 -0.000000000 -0.000000000 -92.475925
262 -1.0000 35.4530 22.480000000 25.290000000 0.000000000 -0.000000000 0.000000000 -0.000000000 -92.475925
263 -1.0000 35.4530 22.480000000 22.480000000 2.810000000 -0.000000000 -0.000000000 0.000000000 -92.475925
264 -1.0000 35.4530 25.290000000 25.290000000 2.810000000 0.000000000 0.000000000 0.000000000 -92.475925
265 1.0000 22.9897 28.100000000 22.480000000 0.000000000 -0.000000000 -0.000000000 -0.000000000 -92.475925
266 1.0000 22.9897 30.910000000 22.480000000 2.810000000 -0.000000000 -0.000000000 -0.000000000 -92.475925
267 1.0000 22.9897 28.100000000 25.290000000 2.810000000 -0.000000000 0.000000000 0.000000000 -92.475925
268 1.0000 22.9897 30.910000000 25.290000000 0.000000000 -0.000000000 0.000000000 -0.000000000 -92.475925
269 -1.0000 35.4530 30.910000000 22.480000000 0.000000000 0.000000000 0.000000000 -0.000000000 -92.475925
270 -1.0000 35.4530 28.100000000 25.290000000 0.000000000 -0.000000000 0.000000000 -0.000000000 -92.475925
271 -1.0000 35.4530 28.100000000 22.480000000 2.810000000 -0.000000000 -0.000000000 -0.000000000 -92.475925
272 -1.0000 35.4530 30.910000000 25.290000000 2.810000000 0.000000000 0.000000000 -0.000000000 -92.475925
273 1.0000 22.9897 33.720000000 22.480000000 0.000000000 0.000000000 0.000000000 -0.000000000 -92.475925
274 1.0000 22.9897 36.530000000 22.480000000 2.810000000 -0.000000000 0.000000000 -0.000000000 -92.475925
275 1.0000 22.9897 33.720000000 25.290000000 2.810000000 0.000000000 0.000000000 0.000000000 -92.475925
276 1.0000 22.9897 36.530000000 25.290000000 0.000000000 -0.000000000 0.000000000 -0.000000000 -92.475925
277 -1.0000 35.4530 36.530000000 22.480000000 0.000000000 0.000000000 0.000000000 -0.000000000 -92.475925
278 -1.0000 35.4530 33.720000000 25.290000000 0.000000000 0.000000000 0.000000000 -0.000000000 -92.475925
279 -1.0000 35.4530 33.720000000 22.480000000 2.810000000 0.000000000 -0.000000000 -0.000000000 -92.475925
280 -1.0000 35.4530 36.530000000 25.290000000 2.810000000 0.000000000 0.000000000 -0.000000000 -92.475925
281 1.0000 22.9897 0.000000000 28.100000000 0.000000000 -0.000000000 -0.000000000 -0.000000000 -92.475925
282 1.0000 22.9897 2.810000000 28.100000000 2.810000000 -0.000000000 -0.000000000 0.000000000 -92.475925