LAMMPS (28 Mar 2023 - Development)
OMP_NUM_THREADS environment is not set. Defaulting to 1 thread. (src/comm.cpp:98)
  using 1 OpenMP thread(s) per MPI task
# LAMMPS input script for NaCl crystal simulation with real units

units real
dimension 3
boundary p p p

# Atom definition
atom_style charge
read_data salt7UC.positions
Reading data file ...
  orthogonal box = (0 0 0) to (39.34 39.34 39.34)
  1 by 1 by 1 MPI processor grid
  reading atoms ...
  2744 atoms
  reading velocities ...
  2744 velocities
  read_data CPU = 0.048 seconds

# Define groups
group Na type 1
1372 atoms in group Na
group Cl type 2
1372 atoms in group Cl

# Set up pair style and coefficients
pair_style lj/cut/coul/long 7.0 10.0
kspace_style ewald 1e-5

#THIS IS NOT REAL JUST FOR SIMPLICITY IN PROJECT
pair_coeff 1 1 0.1 3.492
pair_coeff 1 2 0.1 3.492
pair_coeff 2 2 0.1 3.492


timestep 2.0

compute 1 all pe/atom
compute 2 all pair lj/cut/coul/long ecoul
compute 3 all pair lj/cut/coul/long evdwl
compute 4 all pe
variable elong equal elong


variable T equal 300
velocity all create ${T} 31454 dist gaussian mom yes
velocity all create 300 31454 dist gaussian mom yes


# Run simulation
fix 1 all nve
dump data all custom 1000 dump.atom id q mass x y z fx fy fz c_1
dump_modify data format line "%d %.4f %.4f %.9f %.9f %.9f %.9f %.9f %.9f %9f"
fix eng_print all print 1000 "$(c_2) $(v_elong) $(c_3) $(c_4)" file energy_breakdown.txt
dump_modify data sort id
run 10000
Ewald initialization ...
  using 12-bit tables for long-range coulomb (src/kspace.cpp:342)
  G vector (1/distance) = 0.30830185
  estimated absolute RMS force accuracy = 0.0043620046
  estimated relative force accuracy = 1.3136047e-05
  KSpace vectors: actual max1d max3d = 3576 12 7812
                  kxmax kymax kzmax  = 12 12 12
Generated 0 of 1 mixed pair_coeff terms from geometric mixing rule
Neighbor list info ...
  update: every = 1 steps, delay = 0 steps, check = yes
  max neighbors/atom: 2000, page size: 100000
  master list distance cutoff = 12
  ghost atom cutoff = 12
  binsize = 6, bins = 7 7 7
  1 neighbor lists, perpetual/occasional/extra = 1 0 0
  (1) pair lj/cut/coul/long, perpetual
      attributes: half, newton on
      pair build: half/bin/atomonly/newton
      stencil: half/bin/3d
      bin: standard
-124871.71007027954329 -158491.77314118400682 29609.543854717754584 -253753.93935674571549
Per MPI rank memory allocation (min/avg/max) = 27.23 | 27.23 | 27.23 Mbytes
   Step          Temp          E_pair         E_mol          TotEng         Press     
         0   300           -253753.94      0             -251301.03      66374.443    
-124467.34019166059443 -158441.23227396400762 30411.319714695811854 -252497.25275092903757
-124503.4745963812602 -158442.71500633101095 30456.191342382149742 -252489.9982603303506
-124551.16107509589347 -158444.04340974701336 30492.540413408354652 -252502.66407143470133
-124527.26962512293539 -158441.50680045899935 30468.759960857845726 -252500.01646472449647
-124489.51898346788948 -158443.06114688600064 30443.260045640865428 -252489.32008471316658
-124505.57803361234255 -158440.63018898500013 30483.22564700946532 -252462.98257558816113
-124552.34577584450017 -158444.76393370199366 30468.737382086317666 -252528.37232746041263
-124523.19336167689471 -158443.64003321199561 30473.920374706685834 -252492.91302018181887
-124538.02464754221728 -158442.43157322600018 30495.044966268047574 -252485.41125450015534
-124545.40720948779199 -158445.84896146401297 30499.7366057359759 -252491.51956521553802
     10000   148.83416     -252491.52      0             -251274.6       69656.225    
Loop time of 563.548 on 1 procs for 10000 steps with 2744 atoms

Performance: 3.066 ns/day, 7.827 hours/ns, 17.745 timesteps/s, 48.692 katom-step/s
100.0% CPU use with 1 MPI tasks x 1 OpenMP threads

MPI task timing breakdown:
Section |  min time  |  avg time  |  max time  |%varavg| %total
---------------------------------------------------------------
Pair    | 53.759     | 53.759     | 53.759     |   0.0 |  9.54
Kspace  | 508.79     | 508.79     | 508.79     |   0.0 | 90.28
Neigh   | 0          | 0          | 0          |   0.0 |  0.00
Comm    | 0.4554     | 0.4554     | 0.4554     |   0.0 |  0.08
Output  | 0.13762    | 0.13762    | 0.13762    |   0.0 |  0.02
Modify  | 0.23627    | 0.23627    | 0.23627    |   0.0 |  0.04
Other   |            | 0.1692     |            |       |  0.03

Nlocal:           2744 ave        2744 max        2744 min
Histogram: 1 0 0 0 0 0 0 0 0 0
Nghost:           9423 ave        9423 max        9423 min
Histogram: 1 0 0 0 0 0 0 0 0 0
Neighs:         466480 ave      466480 max      466480 min
Histogram: 1 0 0 0 0 0 0 0 0 0

Total # of neighbors = 466480
Ave neighs/atom = 170
Neighbor list builds = 0
Dangerous builds = 0
Total wall time: 0:09:24
