ITEM: TIMESTEP
0
ITEM: NUMBER OF ATOMS
216
ITEM: BOX BOUNDS pp pp pp
0.0000000000000000e+00 1.6859999999999999e+01
0.0000000000000000e+00 1.6859999999999999e+01
0.0000000000000000e+00 1.6859999999999999e+01
ITEM: ATOMS id q mass x y z fx fy fz c_1
1 1.0 22.9897 0.000000000 0.000000000 0.000000000 0.000000000 0.000000000 0.000000000 -91.915617
2 1.0 22.9897 2.810000000 0.000000000 2.810000000 -0.000000000 0.000000000 0.000000000 -91.915617
3 1.0 22.9897 0.000000000 2.810000000 2.810000000 0.000000000 0.000000000 0.000000000 -91.915617
4 1.0 22.9897 2.810000000 2.810000000 0.000000000 -0.000000000 0.000000000 0.000000000 -91.915617
5 -1.0 35.4530 2.810000000 0.000000000 0.000000000 0.000000000 0.000000000 0.000000000 -88.500987
6 -1.0 35.4530 0.000000000 2.810000000 0.000000000 0.000000000 0.000000000 0.000000000 -88.500987
7 -1.0 35.4530 0.000000000 0.000000000 2.810000000 0.000000000 0.000000000 0.000000000 -88.500987
8 -1.0 35.4530 2.810000000 2.810000000 2.810000000 0.000000000 -0.000000000 -0.000000000 -88.500987
9 1.0 22.9897 5.620000000 0.000000000 0.000000000 -0.000000000 0.000000000 0.000000000 -91.915617
10 1.0 22.9897 8.430000000 0.000000000 2.810000000 0.000000000 0.000000000 0.000000000 -91.915617
11 1.0 22.9897 5.620000000 2.810000000 2.810000000 -0.000000000 0.000000000 0.000000000 -91.915617
12 1.0 22.9897 8.430000000 2.810000000 0.000000000 0.000000000 0.000000000 0.000000000 -91.915617
13 -1.0 35.4530 8.430000000 0.000000000 0.000000000 0.000000000 0.000000000 0.000000000 -88.500987
14 -1.0 35.4530 5.620000000 2.810000000 0.000000000 -0.000000000 -0.000000000 0.000000000 -88.500987
15 -1.0 35.4530 5.620000000 0.000000000 2.810000000 -0.000000000 0.000000000 -0.000000000 -88.500987
16 -1.0 35.4530 8.430000000 2.810000000 2.810000000 0.000000000 -0.000000000 -0.000000000 -88.500987
17 1.0 22.9897 11.240000000 0.000000000 0.000000000 0.000000000 0.000000000 0.000000000 -91.915617
18 1.0 22.9897 14.050000000 0.000000000 2.810000000 -0.000000000 0.000000000 -0.000000000 -91.915617
19 1.0 22.9897 11.240000000 2.810000000 2.810000000 0.000000000 0.000000000 0.000000000 -91.915617
20 1.0 22.9897 14.050000000 2.810000000 0.000000000 -0.000000000 -0.000000000 0.000000000 -91.915617
21 -1.0 35.4530 14.050000000 0.000000000 0.000000000 -0.000000000 0.000000000 0.000000000 -88.500987
22 -1.0 35.4530 11.240000000 2.810000000 0.000000000 -0.000000000 -0.000000000 0.000000000 -88.500987
23 -1.0 35.4530 11.240000000 0.000000000 2.810000000 -0.000000000 0.000000000 -0.000000000 -88.500987
24 -1.0 35.4530 14.050000000 2.810000000 2.810000000 -0.000000000 -0.000000000 -0.000000000 -88.500987
25 1.0 22.9897 0.000000000 5.620000000 0.000000000 0.000000000 -0.000000000 0.000000000 -91.915617
26 1.0 22.9897 2.810000000 5.620000000 2.810000000 0.000000000 -0.000000000 0.000000000 -91.915617
27 1.0 22.9897 0.000000000 8.430000000 2.810000000 0.000000000 0.000000000 -0.000000000 -91.915617
28 1.0 22.9897 2.810000000 8.430000000 0.000000000 -0.000000000 0.000000000 0.000000000 -91.915617
29 -1.0 35.4530 2.810000000 5.620000000 0.000000000 0.000000000 -0.000000000 0.000000000 -88.500987
30 -1.0 35.4530 0.000000000 8.430000000 0.000000000 0.000000000 0.000000000 0.000000000 -88.500987
31 -1.0 35.4530 0.000000000 5.620000000 2.810000000 0.000000000 -0.000000000 -0.000000000 -88.500987
32 -1.0 35.4530 2.810000000 8.430000000 2.810000000 -0.000000000 0.000000000 -0.000000000 -88.500987
33 1.0 22.9897 5.620000000 5.620000000 0.000000000 -0.000000000 -0.000000000 0.000000000 -91.915617
34 1.0 22.9897 8.430000000 5.620000000 2.810000000 0.000000000 -0.000000000 0.000000000 -91.915617
35 1.0 22.9897 5.620000000 8.430000000 2.810000000 -0.000000000 0.000000000 0.000000000 -91.915617
36 1.0 22.9897 8.430000000 8.430000000 0.000000000 0.000000000 0.000000000 0.000000000 -91.915617
37 -1.0 35.4530 8.430000000 5.620000000 0.000000000 0.000000000 -0.000000000 0.000000000 -88.500987
38 -1.0 35.4530 5.620000000 8.430000000 0.000000000 -0.000000000 0.000000000 0.000000000 -88.500987
39 -1.0 35.4530 5.620000000 5.620000000 2.810000000 -0.000000000 -0.000000000 -0.000000000 -88.500987
40 -1.0 35.4530 8.430000000 8.430000000 2.810000000 0.000000000 0.000000000 0.000000000 -88.500987
41 1.0 22.9897 11.240000000 5.620000000 0.000000000 -0.000000000 -0.000000000 0.000000000 -91.915617
42 1.0 22.9897 14.050000000 5.620000000 2.810000000 -0.000000000 -0.000000000 0.000000000 -91.915617
43 1.0 22.9897 11.240000000 8.430000000 2.810000000 -0.000000000 0.000000000 0.000000000 -91.915617
44 1.0 22.9897 14.050000000 8.430000000 0.000000000 -0.000000000 0.000000000 0.000000000 -91.915617
45 -1.0 35.4530 14.050000000 5.620000000 0.000000000 -0.000000000 -0.000000000 0.000000000 -88.500987
46 -1.0 35.4530 11.240000000 8.430000000 0.000000000 0.000000000 0.000000000 0.000000000 -88.500987
47 -1.0 35.4530 11.240000000 5.620000000 2.810000000 -0.000000000 -0.000000000 -0.000000000 -88.500987
48 -1.0 35.4530 14.050000000 8.430000000 2.810000000 -0.000000000 0.000000000 -0.000000000 -88.500987
49 1.0 22.9897 0.000000000 11.240000000 0.000000000 0.000000000 0.000000000 0.000000000 -91.915617
50 1.0 22.9897 2.810000000 11.240000000 2.810000000 -0.000000000 -0.000000000 0.000000000 -91.915617
51 1.0 22.9897 0.000000000 14.050000000 2.810000000 0.000000000 -0.000000000 -0.000000000 -91.915617
52 1.0 22.9897 2.810000000 14.050000000 0.000000000 -0.000000000 -0.000000000 0.000000000 -91.915617
53 -1.0 35.4530 2.810000000 11.240000000 0.000000000 0.000000000 0.000000000 0.000000000 -88.500987
54 -1.0 35.4530 0.000000000 14.050000000 0.000000000 0.000000000 -0.000000000 0.000000000 -88.500987
55 -1.0 35.4530 0.000000000 11.240000000 2.810000000 0.000000000 -0.000000000 0.000000000 -88.500987
56 -1.0 35.4530 2.810000000 14.050000000 2.810000000 0.000000000 -0.000000000 0.000000000 -88.500987
57 1.0 22.9897 5.620000000 11.240000000 0.000000000 -0.000000000 -0.000000000 0.000000000 -91.915617
58 1.0 22.9897 8.430000000 11.240000000 2.810000000 0.000000000 -0.000000000 0.000000000 -91.915617
59 1.0 22.9897 5.620000000 14.050000000 2.810000000 -0.000000000 -0.000000000 0.000000000 -91.915617
60 1.0 22.9897 8.430000000 14.050000000 0.000000000 0.000000000 -0.000000000 0.000000000 -91.915617
61 -1.0 35.4530 8.430000000 11.240000000 0.000000000 0.000000000 0.000000000 0.000000000 -88.500987
62 -1.0 35.4530 5.620000000 14.050000000 0.000000000 -0.000000000 -0.000000000 0.000000000 -88.500987
63 -1.0 35.4530 5.620000000 11.240000000 2.810000000 -0.000000000 0.000000000 0.000000000 -88.500987
64 -1.0 35.4530 8.430000000 14.050000000 2.810000000 0.000000000 -0.000000000 -0.000000000 -88.500987
65 1.0 22.9897 11.240000000 11.240000000 0.000000000 0.000000000 -0.000000000 0.000000000 -91.915617
66 1.0 22.9897 14.050000000 11.240000000 2.810000000 -0.000000000 0.000000000 0.000000000 -91.915617
67 1.0 22.9897 11.240000000 14.050000000 2.810000000 0.000000000 -0.000000000 0.000000000 -91.915617
68 1.0 22.9897 14.050000000 14.050000000 0.000000000 -0.000000000 -0.000000000 0.000000000 -91.915617
69 -1.0 35.4530 14.050000000 11.240000000 0.000000000 -0.000000000 -0.000000000 0.000000000 -88.500987
70 -1.0 35.4530 11.240000000 14.050000000 0.000000000 -0.000000000 -0.000000000 0.000000000 -88.500987
71 -1.0 35.4530 11.240000000 11.240000000 2.810000000 -0.000000000 -0.000000000 -0.000000000 -88.500987
72 -1.0 35.4530 14.050000000 14.050000000 2.810000000 -0.000000000 -0.000000000 -0.000000000 -88.500987
73 1.0 22.9897 0.000000000 0.000000000 5.620000000 0.000000000 0.000000000 -0.000000000 -91.915617
74 1.0 22.9897 2.810000000 0.000000000 8.430000000 -0.000000000 0.000000000 0.000000000 -91.915617
75 1.0 22.9897 0.000000000 2.810000000 8.430000000 0.000000000 0.000000000 0.000000000 -91.915617
76 1.0 22.9897 2.810000000 2.810000000 5.620000000 0.000000000 0.000000000 -0.000000000 -91.915617
77 -1.0 35.4530 2.810000000 0.000000000 5.620000000 0.000000000 0.000000000 -0.000000000 -88.500987
78 -1.0 35.4530 0.000000000 2.810000000 5.620000000 0.000000000 -0.000000000 -0.000000000 -88.500987
79 -1.0 35.4530 0.000000000 0.000000000 8.430000000 0.000000000 0.000000000 0.000000000 -88.500987
80 -1.0 35.4530 2.810000000 2.810000000 8.430000000 -0.000000000 -0.000000000 0.000000000 -88.500987
81 1.0 22.9897 5.620000000 0.000000000 5.620000000 -0.000000000 0.000000000 -0.000000000 -91.915617
82 1.0 22.9897 8.430000000 0.000000000 8.430000000 0.000000000 0.000000000 0.000000000 -91.915617
83 1.0 22.9897 5.620000000 2.810000000 8.430000000 -0.000000000 0.000000000 0.000000000 -91.915617
84 1.0 22.9897 8.430000000 2.810000000 5.620000000 0.000000000 0.000000000 -0.000000000 -91.915617
85 -1.0 35.4530 8.430000000 0.000000000 5.620000000 0.000000000 0.000000000 -0.000000000 -88.500987
86 -1.0 35.4530 5.620000000 2.810000000 5.620000000 -0.000000000 -0.000000000 -0.000000000 -88.500987
87 -1.0 35.4530 5.620000000 0.000000000 8.430000000 -0.000000000 0.000000000 0.000000000 -88.500987
88 -1.0 35.4530 8.430000000 2.810000000 8.430000000 0.000000000 0.000000000 0.000000000 -88.500987
89 1.0 22.9897 11.240000000 0.000000000 5.620000000 -0.000000000 0.000000000 -0.000000000 -91.915617
90 1.0 22.9897 14.050000000 0.000000000 8.430000000 -0.000000000 0.000000000 0.000000000 -91.915617
91 1.0 22.9897 11.240000000 2.810000000 8.430000000 -0.000000000 0.000000000 0.000000000 -91.915617
92 1.0 22.9897 14.050000000 2.810000000 5.620000000 -0.000000000 -0.000000000 -0.000000000 -91.915617
93 -1.0 35.4530 14.050000000 0.000000000 5.620000000 -0.000000000 0.000000000 -0.000000000 -88.500987
94 -1.0 35.4530 11.240000000 2.810000000 5.620000000 -0.000000000 -0.000000000 -0.000000000 -88.500987
95 -1.0 35.4530 11.240000000 0.000000000 8.430000000 0.000000000 0.000000000 0.000000000 -88.500987
96 -1.0 35.4530 14.050000000 2.810000000 8.430000000 -0.000000000 0.000000000 0.000000000 -88.500987
97 1.0 22.9897 0.000000000 5.620000000 5.620000000 0.000000000 -0.000000000 -0.000000000 -91.915617
98 1.0 22.9897 2.810000000 5.620000000 8.430000000 0.000000000 -0.000000000 0.000000000 -91.915617
99 1.0 22.9897 0.000000000 8.430000000 8.430000000 0.000000000 0.000000000 0.000000000 -91.915617
100 1.0 22.9897 2.810000000 8.430000000 5.620000000 0.000000000 0.000000000 -0.000000000 -91.915617
101 -1.0 35.4530 2.810000000 5.620000000 5.620000000 -0.000000000 -0.000000000 -0.000000000 -88.500987
102 -1.0 35.4530 0.000000000 8.430000000 5.620000000 0.000000000 0.000000000 -0.000000000 -88.500987
103 -1.0 35.4530 0.000000000 5.620000000 8.430000000 0.000000000 -0.000000000 0.000000000 -88.500987
104 -1.0 35.4530 2.810000000 8.430000000 8.430000000 -0.000000000 0.000000000 0.000000000 -88.500987
105 1.0 22.9897 5.620000000 5.620000000 5.620000000 -0.000000000 -0.000000000 -0.000000000 -91.915617
106 1.0 22.9897 8.430000000 5.620000000 8.430000000 0.000000000 -0.000000000 0.000000000 -91.915617
107 1.0 22.9897 5.620000000 8.430000000 8.430000000 -0.000000000 0.000000000 0.000000000 -91.915617
108 1.0 22.9897 8.430000000 8.430000000 5.620000000 0.000000000 0.000000000 -0.000000000 -91.915617
109 -1.0 35.4530 8.430000000 5.620000000 5.620000000 0.000000000 -0.000000000 -0.000000000 -88.500987
110 -1.0 35.4530 5.620000000 8.430000000 5.620000000 -0.000000000 0.000000000 -0.000000000 -88.500987
111 -1.0 35.4530 5.620000000 5.620000000 8.430000000 -0.000000000 -0.000000000 0.000000000 -88.500987
112 -1.0 35.4530 8.430000000 8.430000000 8.430000000 0.000000000 0.000000000 0.000000000 -88.500987
113 1.0 22.9897 11.240000000 5.620000000 5.620000000 -0.000000000 -0.000000000 -0.000000000 -91.915617
114 1.0 22.9897 14.050000000 5.620000000 8.430000000 -0.000000000 -0.000000000 0.000000000 -91.915617
115 1.0 22.9897 11.240000000 8.430000000 8.430000000 0.000000000 0.000000000 0.000000000 -91.915617
116 1.0 22.9897 14.050000000 8.430000000 5.620000000 -0.000000000 0.000000000 -0.000000000 -91.915617
117 -1.0 35.4530 14.050000000 5.620000000 5.620000000 -0.000000000 -0.000000000 -0.000000000 -88.500987
118 -1.0 35.4530 11.240000000 8.430000000 5.620000000 -0.000000000 0.000000000 -0.000000000 -88.500987
119 -1.0 35.4530 11.240000000 5.620000000 8.430000000 -0.000000000 -0.000000000 0.000000000 -88.500987
120 -1.0 35.4530 14.050000000 8.430000000 8.430000000 -0.000000000 0.000000000 0.000000000 -88.500987
121 1.0 22.9897 0.000000000 11.240000000 5.620000000 0.000000000 -0.000000000 -0.000000000 -91.915617
122 1.0 22.9897 2.810000000 11.240000000 8.430000000 -0.000000000 -0.000000000 0.000000000 -91.915617
123 1.0 22.9897 0.000000000 14.050000000 8.430000000 0.000000000 -0.000000000 0.000000000 -91.915617
124 1.0 22.9897 2.810000000 14.050000000 5.620000000 -0.000000000 -0.000000000 -0.000000000 -91.915617
125 -1.0 35.4530 2.810000000 11.240000000 5.620000000 0.000000000 0.000000000 -0.000000000 -88.500987
126 -1.0 35.4530 0.000000000 14.050000000 5.620000000 0.000000000 -0.000000000 -0.000000000 -88.500987
127 -1.0 35.4530 0.000000000 11.240000000 8.430000000 0.000000000 0.000000000 0.000000000 -88.500987
128 -1.0 35.4530 2.810000000 14.050000000 8.430000000 0.000000000 -0.000000000 0.000000000 -88.500987
129 1.0 22.9897 5.620000000 11.240000000 5.620000000 -0.000000000 -0.000000000 -0.000000000 -91.915617
130 1.0 22.9897 8.430000000 11.240000000 8.430000000 0.000000000 0.000000000 0.000000000 -91.915617
131 1.0 22.9897 5.620000000 14.050000000 8.430000000 -0.000000000 -0.000000000 0.000000000 -91.915617
132 1.0 22.9897 8.430000000 14.050000000 5.620000000 0.000000000 -0.000000000 -0.000000000 -91.915617
133 -1.0 35.4530 8.430000000 11.240000000 5.620000000 0.000000000 0.000000000 -0.000000000 -88.500987
134 -1.0 35.4530 5.620000000 14.050000000 5.620000000 -0.000000000 -0.000000000 -0.000000000 -88.500987
135 -1.0 35.4530 5.620000000 11.240000000 8.430000000 -0.000000000 -0.000000000 0.000000000 -88.500987
136 -1.0 35.4530 8.430000000 14.050000000 8.430000000 0.000000000 -0.000000000 0.000000000 -88.500987
137 1.0 22.9897 11.240000000 11.240000000 5.620000000 -0.000000000 0.000000000 -0.000000000 -91.915617
138 1.0 22.9897 14.050000000 11.240000000 8.430000000 -0.000000000 -0.000000000 0.000000000 -91.915617
139 1.0 22.9897 11.240000000 14.050000000 8.430000000 0.000000000 -0.000000000 0.000000000 -91.915617
140 1.0 22.9897 14.050000000 14.050000000 5.620000000 -0.000000000 -0.000000000 -0.000000000 -91.915617
141 -1.0 35.4530 14.050000000 11.240000000 5.620000000 -0.000000000 -0.000000000 -0.000000000 -88.500987
142 -1.0 35.4530 11.240000000 14.050000000 5.620000000 0.000000000 -0.000000000 -0.000000000 -88.500987
143 -1.0 35.4530 11.240000000 11.240000000 8.430000000 -0.000000000 -0.000000000 0.000000000 -88.500987
144 -1.0 35.4530 14.050000000 14.050000000 8.430000000 -0.000000000 -0.000000000 0.000000000 -88.500987
145 1.0 22.9897 0.000000000 0.000000000 11.240000000 0.000000000 0.000000000 0.000000000 -91.915617
146 1.0 22.9897 2.810000000 0.000000000 14.050000000 -0.000000000 0.000000000 -0.000000000 -91.915617
147 1.0 22.9897 0.000000000 2.810000000 14.050000000 0.000000000 -0.000000000 -0.000000000 -91.915617
148 1.0 22.9897 2.810000000 2.810000000 11.240000000 0.000000000 0.000000000 -0.000000000 -91.915617
149 -1.0 35.4530 2.810000000 0.000000000 11.240000000 0.000000000 0.000000000 0.000000000 -88.500987
150 -1.0 35.4530 0.000000000 2.810000000 11.240000000 0.000000000 0.000000000 -0.000000000 -88.500987
151 -1.0 35.4530 0.000000000 0.000000000 14.050000000 0.000000000 0.000000000 -0.000000000 -88.500987
152 -1.0 35.4530 2.810000000 2.810000000 14.050000000 0.000000000 0.000000000 -0.000000000 -88.500987
153 1.0 22.9897 5.620000000 0.000000000 11.240000000 -0.000000000 0.000000000 -0.000000000 -91.915617
154 1.0 22.9897 8.430000000 0.000000000 14.050000000 0.000000000 0.000000000 -0.000000000 -91.915617
155 1.0 22.9897 5.620000000 2.810000000 14.050000000 -0.000000000 0.000000000 -0.000000000 -91.915617
156 1.0 22.9897 8.430000000 2.810000000 11.240000000 0.000000000 0.000000000 -0.000000000 -91.915617
157 -1.0 35.4530 8.430000000 0.000000000 11.240000000 0.000000000 0.000000000 0.000000000 -88.500987
158 -1.0 35.4530 5.620000000 2.810000000 11.240000000 -0.000000000 -0.000000000 -0.000000000 -88.500987
159 -1.0 35.4530 5.620000000 0.000000000 14.050000000 -0.000000000 0.000000000 -0.000000000 -88.500987
160 -1.0 35.4530 8.430000000 2.810000000 14.050000000 0.000000000 -0.000000000 -0.000000000 -88.500987
161 1.0 22.9897 11.240000000 0.000000000 11.240000000 0.000000000 0.000000000 -0.000000000 -91.915617
162 1.0 22.9897 14.050000000 0.000000000 14.050000000 -0.000000000 0.000000000 -0.000000000 -91.915617
163 1.0 22.9897 11.240000000 2.810000000 14.050000000 0.000000000 0.000000000 -0.000000000 -91.915617
164 1.0 22.9897 14.050000000 2.810000000 11.240000000 -0.000000000 -0.000000000 0.000000000 -91.915617
165 -1.0 35.4530 14.050000000 0.000000000 11.240000000 -0.000000000 0.000000000 -0.000000000 -88.500987
166 -1.0 35.4530 11.240000000 2.810000000 11.240000000 0.000000000 -0.000000000 0.000000000 -88.500987
167 -1.0 35.4530 11.240000000 0.000000000 14.050000000 -0.000000000 0.000000000 -0.000000000 -88.500987
168 -1.0 35.4530 14.050000000 2.810000000 14.050000000 -0.000000000 0.000000000 -0.000000000 -88.500987
169 1.0 22.9897 0.000000000 5.620000000 11.240000000 0.000000000 -0.000000000 -0.000000000 -91.915617
170 1.0 22.9897 2.810000000 5.620000000 14.050000000 0.000000000 -0.000000000 -0.000000000 -91.915617
171 1.0 22.9897 0.000000000 8.430000000 14.050000000 0.000000000 0.000000000 -0.000000000 -91.915617
172 1.0 22.9897 2.810000000 8.430000000 11.240000000 0.000000000 0.000000000 -0.000000000 -91.915617
173 -1.0 35.4530 2.810000000 5.620000000 11.240000000 -0.000000000 -0.000000000 0.000000000 -88.500987
174 -1.0 35.4530 0.000000000 8.430000000 11.240000000 0.000000000 0.000000000 0.000000000 -88.500987
175 -1.0 35.4530 0.000000000 5.620000000 14.050000000 0.000000000 -0.000000000 -0.000000000 -88.500987
176 -1.0 35.4530 2.810000000 8.430000000 14.050000000 -0.000000000 0.000000000 -0.000000000 -88.500987
177 1.0 22.9897 5.620000000 5.620000000 11.240000000 -0.000000000 -0.000000000 -0.000000000 -91.915617
178 1.0 22.9897 8.430000000 5.620000000 14.050000000 0.000000000 -0.000000000 -0.000000000 -91.915617
179 1.0 22.9897 5.620000000 8.430000000 14.050000000 -0.000000000 0.000000000 -0.000000000 -91.915617
180 1.0 22.9897 8.430000000 8.430000000 11.240000000 0.000000000 0.000000000 -0.000000000 -91.915617
181 -1.0 35.4530 8.430000000 5.620000000 11.240000000 0.000000000 -0.000000000 0.000000000 -88.500987
182 -1.0 35.4530 5.620000000 8.430000000 11.240000000 -0.000000000 0.000000000 0.000000000 -88.500987
183 -1.0 35.4530 5.620000000 5.620000000 14.050000000 -0.000000000 -0.000000000 -0.000000000 -88.500987
184 -1.0 35.4530 8.430000000 8.430000000 14.050000000 0.000000000 0.000000000 -0.000000000 -88.500987
185 1.0 22.9897 11.240000000 5.620000000 11.240000000 -0.000000000 -0.000000000 -0.000000000 -91.915617
186 1.0 22.9897 14.050000000 5.620000000 14.050000000 -0.000000000 -0.000000000 -0.000000000 -91.915617
187 1.0 22.9897 11.240000000 8.430000000 14.050000000 0.000000000 0.000000000 -0.000000000 -91.915617
188 1.0 22.9897 14.050000000 8.430000000 11.240000000 -0.000000000 0.000000000 -0.000000000 -91.915617
189 -1.0 35.4530 14.050000000 5.620000000 11.240000000 -0.000000000 -0.000000000 -0.000000000 -88.500987
190 -1.0 35.4530 11.240000000 8.430000000 11.240000000 -0.000000000 0.000000000 0.000000000 -88.500987
191 -1.0 35.4530 11.240000000 5.620000000 14.050000000 0.000000000 -0.000000000 -0.000000000 -88.500987
192 -1.0 35.4530 14.050000000 8.430000000 14.050000000 -0.000000000 0.000000000 -0.000000000 -88.500987
193 1.0 22.9897 0.000000000 11.240000000 11.240000000 0.000000000 0.000000000 -0.000000000 -91.915617
194 1.0 22.9897 2.810000000 11.240000000 14.050000000 -0.000000000 -0.000000000 -0.000000000 -91.915617
195 1.0 22.9897 0.000000000 14.050000000 14.050000000 0.000000000 -0.000000000 -0.000000000 -91.915617
196 1.0 22.9897 2.810000000 14.050000000 11.240000000 -0.000000000 -0.000000000 -0.000000000 -91.915617
197 -1.0 35.4530 2.810000000 11.240000000 11.240000000 0.000000000 -0.000000000 0.000000000 -88.500987
198 -1.0 35.4530 0.000000000 14.050000000 11.240000000 0.000000000 -0.000000000 -0.000000000 -88.500987
199 -1.0 35.4530 0.000000000 11.240000000 14.050000000 0.000000000 0.000000000 -0.000000000 -88.500987
200 -1.0 35.4530 2.810000000 14.050000000 14.050000000 0.000000000 -0.000000000 -0.000000000 -88.500987
201 1.0 22.9897 5.620000000 11.240000000 11.240000000 -0.000000000 -0.000000000 -0.000000000 -91.915617
202 1.0 22.9897 8.430000000 11.240000000 14.050000000 0.000000000 -0.000000000 -0.000000000 -91.915617
203 1.0 22.9897 5.620000000 14.050000000 14.050000000 -0.000000000 -0.000000000 -0.000000000 -91.915617
204 1.0 22.9897 8.430000000 14.050000000 11.240000000 0.000000000 -0.000000000 -0.000000000 -91.915617
205 -1.0 35.4530 8.430000000 11.240000000 11.240000000 0.000000000 0.000000000 0.000000000 -88.500987
206 -1.0 35.4530 5.620000000 14.050000000 11.240000000 -0.000000000 -0.000000000 0.000000000 -88.500987
207 -1.0 35.4530 5.620000000 11.240000000 14.050000000 -0.000000000 0.000000000 -0.000000000 -88.500987
208 -1.0 35.4530 8.430000000 14.050000000 14.050000000 0.000000000 -0.000000000 -0.000000000 -88.500987
209 1.0 22.9897 11.240000000 11.240000000 11.240000000 0.000000000 0.000000000 -0.000000000 -91.915617
210 1.0 22.9897 14.050000000 11.240000000 14.050000000 -0.000000000 0.000000000 -0.000000000 -91.915617
211 1.0 22.9897 11.240000000 14.050000000 14.050000000 0.000000000 -0.000000000 -0.000000000 -91.915617
212 1.0 22.9897 14.050000000 14.050000000 11.240000000 -0.000000000 -0.000000000 0.000000000 -91.915617
213 -1.0 35.4530 14.050000000 11.240000000 11.240000000 -0.000000000 -0.000000000 -0.000000000 -88.500987
214 -1.0 35.4530 11.240000000 14.050000000 11.240000000 -0.000000000 -0.000000000 -0.000000000 -88.500987
215 -1.0 35.4530 11.240000000 11.240000000 14.050000000 -0.000000000 -0.000000000 -0.000000000 -88.500987
216 -1.0 35.4530 14.050000000 14.050000000 14.050000000 -0.000000000 -0.000000000 -0.000000000 -88.500987
ITEM: TIMESTEP
10000
ITEM: NUMBER OF ATOMS
216
ITEM: BOX BOUNDS pp pp pp
0.0000000000000000e+00 1.6859999999999999e+01
0.0000000000000000e+00 1.6859999999999999e+01
0.0000000000000000e+00 1.6859999999999999e+01
ITEM: ATOMS id q mass x y z fx fy fz c_1
1 1.0 22.9897 -0.018503256 0.017595905 -0.004239330 11.053764451 -8.785093638 6.265084576 -92.959804
2 1.0 22.9897 2.806397039 0.036631261 2.880117858 -1.243693946 -3.535614134 -13.438948332 -93.427187
3 1.0 22.9897 0.027332377 2.800412325 2.896542885 2.312012722 0.825786901 -3.309689128 -90.783055
4 1.0 22.9897 2.851829881 2.824746620 0.136046433 -4.322965294 -6.439107696 -9.636530446 -92.652007
5 -1.0 35.4530 2.841447413 -0.028680910 0.080888849 -7.444610579 3.961423702 -7.114427833 -84.052375
6 -1.0 35.4530 0.002068853 2.797783255 0.067939336 6.203260459 -7.755099719 0.759383803 -89.354753
7 -1.0 35.4530 0.004219522 -0.018064989 2.854271137 -2.958099282 2.780997650 -2.806975309 -86.349193
8 -1.0 35.4530 2.870574732 2.807648221 2.876469513 -4.819849734 7.613887182 4.068996432 -88.389489
9 1.0 22.9897 5.623697020 -0.011169731 0.021567994 1.064790798 1.178868990 -4.426278177 -94.325147
10 1.0 22.9897 8.424622198 -0.066673192 2.792976744 -1.513010776 3.347385034 -1.984241152 -92.121428
11 1.0 22.9897 5.699762065 2.793454058 2.779761701 -2.590122996 3.707321397 2.186193706 -91.378120
12 1.0 22.9897 8.400308591 2.809458571 -0.093967884 6.208057914 -0.706636323 10.510024154 -92.099396
13 -1.0 35.4530 8.439661933 -0.007014111 -0.055773555 0.756829992 3.163072238 3.816023247 -86.770692
14 -1.0 35.4530 5.621207477 2.782892967 -0.029307658 1.106349778 6.971202449 3.243349883 -87.157038
15 -1.0 35.4530 5.592299750 0.026614623 2.809915980 9.469409638 -4.994147357 -1.440562420 -86.893408
16 -1.0 35.4530 8.509331282 2.728360708 2.786050229 -4.274056590 6.876096621 -3.221780875 -88.813049
17 1.0 22.9897 11.267041880 -0.019014037 -0.035103678 -3.572382457 6.934233713 3.453183216 -91.029682
18 1.0 22.9897 14.021580877 -0.048305636 2.836067101 3.850297339 2.098861435 9.435554818 -92.907780
19 1.0 22.9897 11.323680907 2.740452185 2.682865942 -5.413369149 1.986210324 12.874374517 -92.390380
20 1.0 22.9897 14.113632515 2.777810766 0.021345945 -9.362846849 5.405760028 -8.968557646 -89.160805
21 -1.0 35.4530 14.080852229 -0.026999314 0.084747187 -4.878334480 1.714412315 -13.609891369 -90.460627
22 -1.0 35.4530 11.264324044 2.873901043 -0.048949569 0.067954709 -11.427212708 -11.119966077 -88.904655
23 -1.0 35.4530 11.217644721 -0.068623251 2.733180289 3.994859803 -0.550410421 9.552624638 -87.783259
24 -1.0 35.4530 14.088436846 2.790396669 2.772329493 1.680616615 -1.966923291 8.986934788 -88.311157
25 1.0 22.9897 0.053395389 5.507214117 0.070555375 -14.562926973 18.105012751 -11.582046443 -90.393848
26 1.0 22.9897 2.797895986 5.646855337 2.858600864 1.449394363 -2.066844776 -1.643103256 -91.970763
27 1.0 22.9897 0.053759405 8.446998646 2.815849178 -0.810059139 4.453246619 4.427398024 -90.405840
28 1.0 22.9897 2.849125571 8.523571925 0.022893887 -9.002905859 -12.075034489 0.832729889 -90.667143
29 -1.0 35.4530 2.768768002 5.609066397 0.066054468 11.077034497 8.470218114 -1.406162665 -88.069491
30 -1.0 35.4530 0.028135341 8.441156120 0.045285537 -5.032032171 -10.737126911 0.854606931 -86.959142
31 -1.0 35.4530 -0.025438921 5.668406586 2.820075759 10.296318782 -7.349552883 9.678032321 -89.320018
32 -1.0 35.4530 2.908198680 8.444705389 2.810251112 -6.596243836 0.712213446 6.646901412 -89.607677
33 1.0 22.9897 5.624003288 5.640911010 -0.069142130 -5.610975547 -6.202097949 3.786415282 -90.978111
34 1.0 22.9897 8.385777129 5.565680221 2.750228788 7.669167090 -1.858237435 5.841625246 -88.849973
35 1.0 22.9897 5.718411681 8.421560080 2.767703636 -7.498730920 4.735594352 2.564474211 -88.753573
36 1.0 22.9897 8.357671047 8.390246787 0.045652697 7.739031344 8.640831137 -9.572353031 -92.382792
37 -1.0 35.4530 8.409508323 5.637645641 -0.022289554 1.001789891 -7.606879060 -4.169137554 -88.038596
38 -1.0 35.4530 5.592856294 8.423466564 -0.036361918 0.960897396 6.891283965 14.118659680 -88.526817
39 -1.0 35.4530 5.619865461 5.633457093 2.715082174 0.500108873 -6.078791559 7.968028469 -90.170912
40 -1.0 35.4530 8.471885813 8.407505299 2.819378486 2.043030577 -4.693626566 4.037822092 -91.924183
41 1.0 22.9897 11.226620634 5.654266100 0.009210307 -1.496907764 2.571518121 -10.971675446 -93.419176
42 1.0 22.9897 14.113993204 5.582669796 2.739866961 -13.475272783 5.763520444 1.791649772 -90.993129
43 1.0 22.9897 11.297439767 8.333510204 2.898882758 -2.938143243 4.248446734 -13.226402579 -90.255645
44 1.0 22.9897 13.988724205 8.450381754 0.001522281 3.866801749 -3.423758344 -1.526718529 -93.913765
45 -1.0 35.4530 14.023003208 5.630626673 -0.025581658 6.915019681 -4.088994310 -2.286007808 -87.358693
46 -1.0 35.4530 11.189136442 8.455610970 -0.029775392 -3.422945389 2.864128667 5.268075746 -85.734354
47 -1.0 35.4530 11.218393352 5.570911002 2.759686391 2.937097763 -0.795713993 5.462355335 -88.546637
48 -1.0 35.4530 14.059722700 8.463138425 2.754303900 7.178823000 -8.896080898 14.659455218 -88.369128
49 1.0 22.9897 0.017280232 11.204106542 0.048634655 -3.581652151 4.726644667 1.100697746 -92.452696
50 1.0 22.9897 2.885009036 11.211303611 2.910792111 -6.937604833 10.137115896 -13.843960926 -89.635577
51 1.0 22.9897 -0.007171265 14.035798208 2.902382839 7.622861352 9.353311713 -12.674813040 -93.278146
52 1.0 22.9897 2.834018129 13.966585636 -0.004785342 -3.515797932 17.586672954 -0.300092332 -94.720747
53 -1.0 35.4530 2.796125813 11.264926318 0.014222334 -1.340537539 -7.558407521 5.954744978 -86.542144
54 -1.0 35.4530 0.086828683 14.016181188 -0.031832237 -15.267802384 2.789208203 10.100403665 -85.395761
55 -1.0 35.4530 0.055018463 11.313379079 2.870208321 -0.841307172 -16.886826294 -4.988031730 -88.822636
56 -1.0 35.4530 2.842492015 14.105149027 2.804401933 -6.127868599 -11.088092949 0.330543343 -85.242238
57 1.0 22.9897 5.527101086 11.305685805 -0.046691452 8.633443432 -6.218502849 1.073738592 -91.287449
58 1.0 22.9897 8.481110362 11.179407216 2.795402796 -7.092175303 5.553647540 -1.387487867 -88.656030
59 1.0 22.9897 5.624857607 14.072169853 2.722012279 1.895234036 4.097599689 -0.867993211 -91.979794
60 1.0 22.9897 8.368126479 14.065067617 -0.027164523 3.480048861 -2.747047953 -9.628176499 -93.172004
61 -1.0 35.4530 8.312599404 11.240379492 -0.063082593 11.273366184 -1.950894731 7.573242744 -86.847212
62 -1.0 35.4530 5.562028736 14.070089508 -0.083668588 12.018800496 1.844411160 1.878469232 -85.392799
63 -1.0 35.4530 5.637229848 11.306694405 2.739301986 6.463480346 -13.636908685 3.584099038 -89.877641
64 -1.0 35.4530 8.461930561 14.019153349 2.726894697 -6.914573607 -6.613368870 9.298448397 -89.935636
65 1.0 22.9897 11.161392993 11.321345298 0.039091871 1.468712101 -10.564459226 -8.304835683 -92.907820
66 1.0 22.9897 14.061591876 11.225747375 2.783205867 3.802492207 2.243064973 7.534416872 -90.995843
67 1.0 22.9897 11.208973735 13.935068874 2.841837586 10.840655877 8.501070815 -11.281828463 -89.379907
68 1.0 22.9897 14.069590769 14.024877903 -0.028752638 2.576423077 1.153503675 8.327701290 -91.158092
69 -1.0 35.4530 14.027011581 11.230186638 0.045436010 1.813035016 4.692951409 -9.028302351 -87.926458
70 -1.0 35.4530 11.224245696 14.078577988 -0.048553092 3.336631503 -3.910020858 9.433935343 -87.684306
71 -1.0 35.4530 11.258524342 11.141482117 2.835350936 -1.955988365 5.347437071 -6.636387345 -91.000356
72 -1.0 35.4530 14.096117629 14.013229751 2.820278433 -13.466931412 1.440220132 -1.890463592 -88.002637
73 1.0 22.9897 0.061130837 0.008083254 5.664729728 -14.636266358 3.175844146 -4.797004439 -92.220960
74 1.0 22.9897 2.819732085 0.011789953 8.505730305 7.137354716 5.687872647 -5.893408194 -88.339330