ITEM: TIMESTEP
0
ITEM: NUMBER OF ATOMS
216
ITEM: BOX BOUNDS pp pp pp
0.0000000000000000e+00 1.6859999999999999e+01
0.0000000000000000e+00 1.6859999999999999e+01
0.0000000000000000e+00 1.6859999999999999e+01
ITEM: ATOMS id x y z fx fy fz c_1
1 0 0 0 1.29674e-13 1.2168e-13 1.30118e-13 -91.9498
2 2.81 0 2.81 8.32667e-16 1.26815e-13 1.05471e-15 -91.9498
3 0 2.81 2.81 1.29674e-13 0 4.44089e-15 -91.9498
4 2.81 2.81 0 3.21965e-15 -3.34455e-15 1.33511e-13 -91.9498
5 2.81 0 0 7.82707e-15 1.73278e-13 1.66551e-13 -88.6664
6 0 2.81 0 1.68754e-13 7.99361e-15 1.65423e-13 -88.6664
7 0 0 2.81 1.66978e-13 1.72307e-13 -8.88178e-16 -88.6664
8 2.81 2.81 2.81 -8.32667e-17 7.48013e-15 8.32667e-17 -88.6664
9 5.62 0 0 -5.45085e-14 1.3145e-13 1.35447e-13 -91.9498
10 8.43 0 2.81 1.15961e-13 1.33662e-13 0 -91.9498
11 5.62 2.81 2.81 -5.31042e-14 -2.72839e-15 9.49219e-16 -91.9498
12 8.43 2.81 0 1.12612e-13 -2.51188e-15 1.36369e-13 -91.9498
13 8.43 0 0 1.26906e-13 1.77021e-13 1.69915e-13 -88.6664
14 5.62 2.81 0 -7.03847e-14 6.07435e-15 1.52246e-13 -88.6664
15 5.62 0 2.81 -6.97723e-14 1.66977e-13 3.82615e-15 -88.6664
16 8.43 2.81 2.81 1.33407e-13 8.63198e-15 9.08995e-15 -88.6664
17 11.24 0 0 1.94289e-15 1.31062e-13 1.43843e-13 -91.9498
18 14.05 0 2.81 -1.94955e-13 1.34559e-13 -2.88658e-15 -91.9498
19 11.24 2.81 2.81 -2.56305e-16 -4.67118e-15 4.86807e-16 -91.9498
20 14.05 2.81 0 -1.95399e-13 -4.46865e-15 1.42553e-13 -91.9498
21 14.05 0 0 -2.22045e-13 1.81188e-13 1.7053e-13 -88.6664
22 11.24 2.81 0 5.82867e-16 4.76962e-15 1.60608e-13 -88.6664
23 11.24 0 2.81 2.85882e-15 1.76151e-13 6.36123e-15 -88.6664
24 14.05 2.81 2.81 -2.20046e-13 5.16254e-15 5.27356e-15 -88.6664
25 0 5.62 0 1.3145e-13 -5.20417e-14 1.40776e-13 -91.9498
26 2.81 5.62 2.81 1.97065e-15 -5.2851e-14 5.76622e-15 -91.9498
27 0 8.43 2.81 1.32339e-13 1.20348e-13 3.55271e-15 -91.9498
28 2.81 8.43 0 8.32667e-17 1.22569e-13 1.37459e-13 -91.9498
29 2.81 5.62 0 1.41553e-15 -7.47375e-14 1.63911e-13 -88.6664
30 0 8.43 0 1.72307e-13 1.20792e-13 1.69864e-13 -88.6664
31 0 5.62 2.81 1.59872e-13 -7.29972e-14 5.32907e-15 -88.6664
32 2.81 8.43 2.81 2.52576e-15 1.27967e-13 8.42382e-15 -88.6664
33 5.62 5.62 0 -5.22824e-14 -5.02803e-14 1.34115e-13 -91.9498
34 8.43 5.62 2.81 1.1232e-13 -4.74409e-14 2.72558e-15 -91.9498
35 5.62 8.43 2.81 -5.23795e-14 1.19794e-13 3.94107e-16 -91.9498
36 8.43 8.43 0 1.12243e-13 1.17721e-13 1.35874e-13 -91.9498
37 8.43 5.62 0 1.31589e-13 -6.87911e-14 1.69915e-13 -88.6664
38 5.62 8.43 0 -6.55951e-14 1.28701e-13 1.68139e-13 -88.6664
39 5.62 5.62 2.81 -6.70523e-14 -6.82719e-14 2.61466e-15 -88.6664
40 8.43 8.43 2.81 1.3226e-13 1.28223e-13 1.36002e-14 -88.6664
41 11.24 5.62 0 -1.91513e-15 -4.94466e-14 1.37612e-13 -91.9498
42 14.05 5.62 2.81 -1.94955e-13 -5.10703e-14 2.22045e-15 -91.9498
43 11.24 8.43 2.81 -1.96457e-16 1.12698e-13 2.2083e-15 -91.9498
44 14.05 8.43 0 -1.92735e-13 1.15796e-13 1.38112e-13 -91.9498
45 14.05 5.62 0 -2.23821e-13 -6.92779e-14 1.65201e-13 -88.6664
46 11.24 8.43 0 4.08007e-15 1.26189e-13 1.80064e-13 -88.6664
47 11.24 5.62 2.81 -1.94289e-16 -6.71269e-14 8.1081e-15 -88.6664
48 14.05 8.43 2.81 -2.28345e-13 1.29508e-13 3.9968e-15 -88.6664
49 0 11.24 0 1.35003e-13 3.27516e-15 1.39597e-13 -91.9498
50 2.81 11.24 2.81 2.498e-16 3.18799e-15 6.8695e-16 -91.9498
51 0 14.05 2.81 1.35003e-13 -1.95843e-13 8.88178e-16 -91.9498
52 2.81 14.05 0 -3.63598e-15 -1.96315e-13 1.38802e-13 -91.9498
53 2.81 11.24 0 3.52496e-15 3.92481e-16 1.68719e-13 -88.6664
54 0 14.05 0 1.75859e-13 -2.22045e-13 1.73861e-13 -88.6664
55 0 11.24 2.81 1.66978e-13 -3.05311e-15 5.32907e-15 -88.6664
56 2.81 14.05 2.81 3.55271e-15 -2.19283e-13 3.28904e-15 -88.6664
57 5.62 11.24 0 -5.29978e-14 1.4988e-15 1.4045e-13 -91.9498
58 8.43 11.24 2.81 1.11801e-13 6.08048e-15 4.12257e-15 -91.9498
59 5.62 14.05 2.81 -5.33089e-14 -1.98391e-13 5.14031e-15 -91.9498
60 8.43 14.05 0 1.12081e-13 -1.94511e-13 1.38103e-13 -91.9498
61 8.43 11.24 0 1.26309e-13 -1.10057e-15 1.81073e-13 -88.6664
62 5.62 14.05 0 -6.4922e-14 -2.19995e-13 1.74083e-13 -88.6664
63 5.62 11.24 2.81 -6.44606e-14 -2.75474e-15 8.56303e-16 -88.6664
64 8.43 14.05 2.81 1.26521e-13 -2.23155e-13 3.9968e-15 -88.6664
65 11.24 11.24 0 -3.13638e-15 5.42622e-15 1.38514e-13 -91.9498
66 14.05 11.24 2.81 -1.93623e-13 1.77636e-15 3.33067e-15 -91.9498
67 11.24 14.05 2.81 -3.25998e-15 -1.95696e-13 2.31911e-15 -91.9498
68 14.05 14.05 0 -1.89404e-13 -1.89182e-13 1.4122e-13 -91.9498
69 14.05 11.24 0 -2.38032e-13 -6.21725e-15 1.77636e-13 -88.6664
70 11.24 14.05 0 -2.77556e-16 -2.31737e-13 1.81563e-13 -88.6664
71 11.24 11.24 2.81 4.52416e-15 -3.16414e-15 6.19643e-15 -88.6664
72 14.05 14.05 2.81 -2.2804e-13 -2.28095e-13 8.90954e-15 -88.6664
73 0 0 5.62 1.32339e-13 1.28786e-13 -5.85365e-14 -91.9498
74 2.81 0 8.43 2.2482e-15 1.30382e-13 1.12979e-13 -91.9498
75 0 2.81 8.43 1.34115e-13 -2.66454e-15 1.14131e-13 -91.9498
76 2.81 2.81 5.62 3.13638e-15 -7.49401e-16 -5.85643e-14 -91.9498
77 2.81 0 5.62 9.85323e-16 1.6441e-13 -6.77167e-14 -88.6664
78 0 2.81 5.62 1.58096e-13 4.44089e-15 -6.81677e-14 -88.6664
79 0 0 8.43 1.66978e-13 1.78524e-13 1.2168e-13 -88.6664
80 2.81 2.81 8.43 1.47105e-15 8.00748e-15 1.41498e-13 -88.6664
81 5.62 0 5.62 -5.14035e-14 1.2168e-13 -5.62883e-14 -91.9498
82 8.43 0 8.43 1.09777e-13 1.26557e-13 1.05249e-13 -91.9498
83 5.62 2.81 8.43 -5.37712e-14 -6.36438e-15 1.14338e-13 -91.9498
84 8.43 2.81 5.62 1.13681e-13 -5.32907e-15 -5.89207e-14 -91.9498
85 8.43 0 5.62 1.31787e-13 1.73468e-13 -6.47579e-14 -88.6664
86 5.62 2.81 5.62 -6.70037e-14 6.35191e-15 -6.37642e-14 -88.6664
87 5.62 0 8.43 -6.5635e-14 1.75859e-13 1.32612e-13 -88.6664
88 8.43 2.81 8.43 1.32905e-13 7.34829e-15 1.43233e-13 -88.6664
89 11.24 0 5.62 -3.16414e-15 1.3016e-13 -5.7343e-14 -91.9498
90 14.05 0 8.43 -1.9007e-13 1.32783e-13 1.07914e-13 -91.9498
91 11.24 2.81 8.43 -2.12634e-15 -8.96418e-16 1.12162e-13 -91.9498
92 14.05 2.81 5.62 -1.91402e-13 -3.33067e-15 -5.77316e-14 -91.9498
93 14.05 0 5.62 -2.25597e-13 1.73195e-13 -6.12843e-14 -88.6664
94 11.24 2.81 5.62 5.82867e-16 9.28077e-15 -6.31578e-14 -88.6664
95 11.24 0 8.43 7.10543e-15 1.86809e-13 1.36039e-13 -88.6664
96 14.05 2.81 8.43 -2.26569e-13 7.16094e-15 1.34337e-13 -88.6664
97 0 5.62 5.62 1.28786e-13 -4.90163e-14 -5.4165e-14 -91.9498
98 2.81 5.62 8.43 -1.11022e-16 -4.9568e-14 1.12722e-13 -91.9498
99 0 8.43 8.43 1.25677e-13 1.18572e-13 1.0969e-13 -91.9498
100 2.81 8.43 5.62 -9.99201e-16 1.19876e-13 -5.25344e-14 -91.9498
101 2.81 5.62 5.62 1.81799e-15 -6.9212e-14 -7.18262e-14 -88.6664
102 0 8.43 5.62 1.61648e-13 1.26121e-13 -6.70575e-14 -88.6664
103 0 5.62 8.43 1.68754e-13 -7.23865e-14 1.37668e-13 -88.6664
104 2.81 8.43 8.43 4.32987e-15 1.29535e-13 1.51837e-13 -88.6664
105 5.62 5.62 5.62 -5.06492e-14 -5.16782e-14 -5.43741e-14 -91.9498
106 8.43 5.62 8.43 1.12256e-13 -4.49748e-14 1.13078e-13 -91.9498
107 5.62 8.43 8.43 -4.9153e-14 1.15695e-13 1.072e-13 -91.9498
108 8.43 8.43 5.62 1.10011e-13 1.19637e-13 -5.03506e-14 -91.9498
109 8.43 5.62 5.62 1.36534e-13 -7.18303e-14 -7.25382e-14 -88.6664
110 5.62 8.43 5.62 -6.78554e-14 1.30368e-13 -6.41491e-14 -88.6664
111 5.62 5.62 8.43 -6.69308e-14 -6.99858e-14 1.4526e-13 -88.6664
112 8.43 8.43 8.43 1.3205e-13 1.2944e-13 1.40914e-13 -88.6664
113 11.24 5.62 5.62 9.15934e-16 -4.60326e-14 -5.04458e-14 -91.9498
114 14.05 5.62 8.43 -1.95843e-13 -4.35207e-14 1.108e-13 -91.9498
115 11.24 8.43 8.43 6.67001e-16 1.17631e-13 1.11729e-13 -91.9498
116 14.05 8.43 5.62 -1.91402e-13 1.18378e-13 -4.88498e-14 -91.9498
117 14.05 5.62 5.62 -2.30926e-13 -7.10543e-14 -6.92779e-14 -88.6664
118 11.24 8.43 5.62 -1.19349e-15 1.29459e-13 -6.72101e-14 -88.6664
119 11.24 5.62 8.43 1.38778e-16 -7.08877e-14 1.36297e-13 -88.6664
120 14.05 8.43 8.43 -2.32425e-13 1.23901e-13 1.3517e-13 -88.6664
121 0 11.24 5.62 1.30562e-13 -2.38698e-15 -5.50532e-14 -91.9498
122 2.81 11.24 8.43 1.44329e-15 4.47602e-15 1.09066e-13 -91.9498
123 0 14.05 8.43 1.32783e-13 -1.96732e-13 1.13687e-13 -91.9498
124 2.81 14.05 5.62 1.22125e-15 -1.94983e-13 -5.66457e-14 -91.9498
125 2.81 11.24 5.62 1.47105e-15 8.07514e-16 -6.75536e-14 -88.6664
126 0 14.05 5.62 1.66978e-13 -2.20268e-13 -6.43929e-14 -88.6664
127 0 11.24 8.43 1.77636e-13 2.08167e-15 1.35891e-13 -88.6664
128 2.81 14.05 8.43 -2.2482e-15 -2.24487e-13 1.35225e-13 -88.6664
129 5.62 11.24 5.62 -4.90842e-14 4.14946e-15 -5.4047e-14 -91.9498
130 8.43 11.24 8.43 1.13576e-13 6.58821e-15 1.11036e-13 -91.9498
131 5.62 14.05 8.43 -4.80852e-14 -1.96171e-13 1.06393e-13 -91.9498
132 8.43 14.05 5.62 1.1014e-13 -1.92291e-13 -4.797e-14 -91.9498
133 8.43 11.24 5.62 1.35364e-13 -4.00103e-15 -7.12388e-14 -88.6664
134 5.62 14.05 5.62 -6.91478e-14 -2.271e-13 -6.83898e-14 -88.6664
135 5.62 11.24 8.43 -6.71876e-14 -5.5329e-15 1.45643e-13 -88.6664
136 8.43 14.05 8.43 1.32263e-13 -2.28359e-13 1.41304e-13 -88.6664
137 11.24 11.24 5.62 -1.83187e-15 3.9968e-15 -4.62685e-14 -91.9498
138 14.05 11.24 8.43 -1.98064e-13 -2.66454e-15 1.14131e-13 -91.9498
139 11.24 14.05 8.43 -5.51729e-15 -2.03018e-13 1.11054e-13 -91.9498
140 14.05 14.05 5.62 -1.94511e-13 -1.94178e-13 -4.92939e-14 -91.9498
141 14.05 11.24 5.62 -2.39808e-13 2.66454e-15 -6.83897e-14 -88.6664
142 11.24 14.05 5.62 5.46785e-15 -2.37066e-13 -6.53505e-14 -88.6664
143 11.24 11.24 8.43 2.35922e-15 -3.48332e-15 1.31881e-13 -88.6664
144 14.05 14.05 8.43 -2.32481e-13 -2.226e-13 1.27981e-13 -88.6664
145 0 0 11.24 1.37668e-13 1.29674e-13 -1.16573e-15 -91.9498
146 2.81 0 14.05 -7.77156e-16 1.32158e-13 -1.94574e-13 -91.9498
147 0 2.81 14.05 1.32783e-13 -7.10543e-15 -1.88294e-13 -91.9498
148 2.81 2.81 11.24 2.63678e-15 -6.21725e-15 -5.44009e-15 -91.9498
149 2.81 0 11.24 -9.85323e-16 1.71502e-13 3.77823e-15 -88.6664
150 0 2.81 11.24 1.66978e-13 8.88178e-15 4.21885e-15 -88.6664
151 0 0 14.05 1.75859e-13 1.83853e-13 -2.28262e-13 -88.6664
152 2.81 2.81 14.05 -2.77556e-17 1.03667e-14 -2.14537e-13 -88.6664
153 5.62 0 11.24 -5.606e-14 1.27009e-13 -6.91114e-15 -91.9498
154 8.43 0 14.05 1.07416e-13 1.32774e-13 -1.92291e-13 -91.9498
155 5.62 2.81 14.05 -5.15516e-14 -3.50555e-15 -1.9207e-13 -91.9498
156 8.43 2.81 11.24 1.1134e-13 7.63278e-17 -2.84755e-15 -91.9498
157 8.43 0 11.24 1.31574e-13 1.8235e-13 3.54849e-15 -88.6664
158 5.62 2.81 11.24 -6.40685e-14 9.34951e-15 4.73319e-15 -88.6664
159 5.62 0 14.05 -6.4896e-14 1.75859e-13 -2.20883e-13 -88.6664
160 8.43 2.81 14.05 1.29286e-13 1.95677e-15 -2.2754e-13 -88.6664
161 11.24 0 11.24 -2.08167e-15 1.29258e-13 -1.59595e-15 -91.9498
162 14.05 0 14.05 -1.89626e-13 1.32783e-13 -1.89182e-13 -91.9498
163 11.24 2.81 14.05 -9.30679e-16 1.57383e-15 -1.90065e-13 -91.9498
164 14.05 2.81 11.24 -1.94511e-13 -1.66533e-15 -1.77636e-15 -91.9498
165 14.05 0 11.24 -2.38032e-13 1.84741e-13 2.66454e-15 -88.6664
166 11.24 2.81 11.24 1.7486e-15 -3.1225e-17 4.16334e-16 -88.6664
167 11.24 0 14.05 1.13798e-15 1.83256e-13 -2.35206e-13 -88.6664
168 14.05 2.81 14.05 -2.25708e-13 4.16334e-15 -2.31773e-13 -88.6664
169 0 5.62 11.24 1.28786e-13 -4.69347e-14 -7.22339e-15 -91.9498
170 2.81 5.62 14.05 1.4988e-15 -4.99978e-14 -1.9048e-13 -91.9498
171 0 8.43 14.05 1.31006e-13 1.22125e-13 -1.89626e-13 -91.9498
172 2.81 8.43 11.24 -2.16493e-15 1.16587e-13 -1.3288e-15 -91.9498
173 2.81 5.62 11.24 1.4988e-15 -6.41917e-14 2.10422e-15 -88.6664
174 0 8.43 11.24 1.81188e-13 1.2168e-13 3.9968e-15 -88.6664
175 0 5.62 14.05 1.72307e-13 -7.26919e-14 -2.22933e-13 -88.6664
176 2.81 8.43 14.05 2.96985e-15 1.23623e-13 -2.24168e-13 -88.6664
177 5.62 5.62 11.24 -5.12377e-14 -5.25919e-14 -5.56116e-15 -91.9498
178 8.43 5.62 14.05 1.12945e-13 -4.88517e-14 -1.89203e-13 -91.9498
179 5.62 8.43 14.05 -5.23232e-14 1.13068e-13 -1.89346e-13 -91.9498
180 8.43 8.43 11.24 1.15388e-13 1.18618e-13 -5.71353e-15 -91.9498
181 8.43 5.62 11.24 1.31407e-13 -7.05553e-14 -3.22442e-16 -88.6664
182 5.62 8.43 11.24 -6.7453e-14 1.29802e-13 -9.52146e-16 -88.6664
183 5.62 5.62 14.05 -6.89934e-14 -6.93145e-14 -2.21737e-13 -88.6664
184 8.43 8.43 14.05 1.27421e-13 1.25349e-13 -2.30303e-13 -88.6664
185 11.24 5.62 11.24 -4.996e-16 -4.66988e-14 -1.3739e-15 -91.9498
186 14.05 5.62 14.05 -1.95843e-13 -4.79616e-14 -1.88072e-13 -91.9498
187 11.24 8.43 14.05 -1.38604e-15 1.17982e-13 -1.96311e-13 -91.9498
188 14.05 8.43 11.24 -1.95399e-13 1.20265e-13 -4.88498e-15 -91.9498
189 14.05 5.62 11.24 -2.32703e-13 -7.10543e-14 8.88178e-15 -88.6664
190 11.24 8.43 11.24 -1.55431e-15 1.24158e-13 7.63278e-16 -88.6664
191 11.24 5.62 14.05 4.60743e-15 -6.93334e-14 -2.32219e-13 -88.6664
192 14.05 8.43 14.05 -2.3212e-13 1.23235e-13 -2.26569e-13 -88.6664
193 0 11.24 11.24 1.26121e-13 -6.38378e-16 -2.05391e-15 -91.9498
194 2.81 11.24 14.05 -2.33147e-15 7.45931e-16 -1.84651e-13 -91.9498
195 0 14.05 14.05 1.33671e-13 -1.92291e-13 -1.86073e-13 -91.9498
196 2.81 14.05 11.24 8.32667e-16 -1.88322e-13 -2.9074e-15 -91.9498
197 2.81 11.24 11.24 2.2482e-15 -2.7452e-15 -1.87697e-15 -88.6664
198 0 14.05 11.24 1.79412e-13 -2.31815e-13 -4.44089e-16 -88.6664
199 0 11.24 14.05 1.79412e-13 -2.66454e-15 -2.33591e-13 -88.6664
200 2.81 14.05 14.05 5.35683e-15 -2.26028e-13 -2.28415e-13 -88.6664
201 5.62 11.24 11.24 -4.46525e-14 3.81639e-15 -4.656e-15 -91.9498
202 8.43 11.24 14.05 1.12779e-13 6.20185e-15 -1.91953e-13 -91.9498
203 5.62 14.05 14.05 -4.77379e-14 -1.95387e-13 -1.92105e-13 -91.9498
204 8.43 14.05 11.24 1.09265e-13 -1.99396e-13 -2.67283e-15 -91.9498
205 8.43 11.24 11.24 1.27343e-13 -4.23695e-15 -3.94552e-15 -88.6664
206 5.62 14.05 11.24 -6.75258e-14 -2.37758e-13 2.66454e-15 -88.6664
207 5.62 11.24 14.05 -6.74755e-14 -1.42941e-15 -2.3303e-13 -88.6664
208 8.43 14.05 14.05 1.24552e-13 -2.2847e-13 -2.24293e-13 -88.6664
209 11.24 11.24 11.24 1.36002e-15 3.19189e-15 -4.16334e-17 -91.9498
210 14.05 11.24 14.05 -1.9762e-13 8.88178e-16 -1.94289e-13 -91.9498
211 11.24 14.05 14.05 1.02349e-16 -2.03739e-13 -1.94034e-13 -91.9498
212 14.05 14.05 11.24 -1.94955e-13 -2.00839e-13 7.54952e-15 -91.9498
213 14.05 11.24 11.24 -2.41585e-13 8.88178e-16 5.32907e-15 -88.6664
214 11.24 14.05 11.24 2.13718e-15 -2.37066e-13 1.249e-15 -88.6664
215 11.24 11.24 14.05 2.55351e-15 -5.09315e-15 -2.38615e-13 -88.6664
216 14.05 14.05 14.05 -2.32592e-13 -2.2804e-13 -2.39683e-13 -88.6664
ITEM: TIMESTEP
10000
ITEM: NUMBER OF ATOMS
216
ITEM: BOX BOUNDS pp pp pp
0.0000000000000000e+00 1.6859999999999999e+01
0.0000000000000000e+00 1.6859999999999999e+01
0.0000000000000000e+00 1.6859999999999999e+01
ITEM: ATOMS id x y z fx fy fz c_1
1 0.0484234 -0.0615627 -0.010395 6.30316 -0.366781 4.23918 -92.9923
2 2.73628 0.0571329 2.8216 -4.14671 -2.76851 -4.33023 -92.3106
3 -0.105953 2.79944 2.84474 7.13454 -2.88863 -3.63828 -87.9131
4 2.9328 2.85427 0.0785974 -4.49567 -0.966676 -7.92954 -92.5355
5 2.87284 0.0692514 -0.0481533 -0.00850606 -10.2344 7.38732 -86.0362
6 0.137787 2.73455 0.0743364 -10.4933 3.16685 -5.27532 -88.2643
7 -0.109989 -0.0706654 2.84236 9.99258 6.95662 -1.44899 -87.6243
8 2.75663 2.85596 2.85415 -6.69177 2.47451 -3.73891 -90.8566
9 5.67659 0.0127967 -0.0727855 -0.74964 0.240125 3.67093 -92.2793
10 8.30045 0.0600728 2.752 10.1816 1.65415 -0.247166 -90.564
11 5.51682 2.86067 2.76635 11.3071 -2.23646 1.75481 -88.9113
12 8.49821 2.87275 -0.116451 -2.24055 -3.06453 6.45647 -90.7915
13 8.4894 0.0577843 -0.0624518 -0.307706 4.43431 5.25936 -88.2322
14 5.70784 2.87486 -0.0391001 -2.43576 -11.7963 2.77293 -89.6156
15 5.52627 0.00278315 2.77595 6.09761 6.54708 -4.85853 -90.1942
16 8.47332 2.9097 2.77245 -16.9588 -10.4985 -6.80074 -90.1407
17 11.3374 0.039786 -0.0431825 -6.28038 2.071 10.219 -90.3101
18 13.9762 -0.0633521 2.78404 0.866446 -1.8467 7.95098 -90.9566
19 11.2143 2.86482 2.75141 2.04978 -3.21001 1.87575 -90.2032
20 14.1834 2.77476 0.0560483 -4.43445 -5.09114 -30.8566 -87.5382
21 14.1242 -0.0682831 0.00768163 -3.32352 3.39722 -1.7105 -90.7966
22 11.275 2.91367 -0.0589031 7.23162 -17.7319 1.69364 -89.7056
23 11.1894 0.0116675 2.76986 -1.40432 2.48312 0.914147 -89.6208
24 13.986 2.77934 2.67414 0.511706 -2.64001 37.6894 -90.072
25 0.0455446 5.53672 0.0419127 1.10122 4.57536 -6.99271 -89.7293
26 2.66162 5.67783 2.93829 6.13051 2.44004 -16.045 -88.9225
27 -0.0739936 8.43027 2.70015 10.6163 3.77771 3.51071 -88.0873
28 2.85278 8.42013 -0.0539651 3.78945 4.69631 3.7811 -92.3706
29 2.79879 5.63776 0.0343534 7.68713 1.42952 3.02941 -88.8982
30 0.0447928 8.42205 -0.113261 -6.91962 -13.7326 13.5299 -88.5991
31 -0.142157 5.66828 2.84417 15.5413 -10.6582 -1.95307 -91.7539
32 2.84298 8.51248 2.76014 -14.3078 -11.1261 4.22842 -88.5855
33 5.70035 5.62558 0.00357183 -14.9972 6.36836 3.53767 -91.2835
34 8.2738 5.66145 2.83289 10.1759 4.95211 -1.9716 -88.2744
35 5.60138 8.44643 2.76889 2.31604 10.1661 -3.30976 -92.0178
36 8.40861 8.43991 0.00511377 7.72127 5.3306 -9.2143 -93.7054
37 8.41896 5.65065 -0.00233333 14.4607 -0.0520728 7.56866 -87.2378
38 5.70022 8.44213 -0.0698977 -17.0152 2.20696 11.9417 -85.3477
39 5.51145 5.69327 2.81235 -0.755302 -10.1689 -1.55262 -90.7434
40 8.41202 8.51955 2.75506 -0.35388 -17.0539 7.81447 -89.5902
41 11.2982 5.62212 0.0524488 -4.24213 11.5227 -9.50756 -89.6329
42 13.9827 5.56249 2.83288 -7.725 -1.17726 4.04881 -87.6015
43 11.2098 8.40746 2.81084 0.647399 8.20304 -5.08093 -88.6447
44 13.9869 8.32388 0.00586598 5.55252 3.39757 -3.19812 -90.2882
45 14.1499 5.55327 0.0738245 -10.9396 1.77319 -5.85116 -90.6248
46 11.1849 8.45151 -0.0690995 5.41342 -1.73796 7.91308 -88.128
47 11.1561 5.68792 2.82527 -0.582157 -8.4763 -3.99308 -90.8564
48 14.0265 8.32091 2.78499 -5.21911 9.12426 7.39009 -91.2477
49 0.136054 11.1621 0.0404877 -5.83829 8.29952 -0.371236 -91.6221
50 2.82842 11.2592 2.90822 13.0253 7.97178 -12.4239 -91.2713
51 -0.0485653 13.9479 2.89155 8.28817 15.6545 -9.3909 -91.494
52 2.93053 13.9759 0.0919997 -2.26505 15.4288 -6.01559 -94.0736
53 2.92081 11.2478 0.017737 -2.33613 -9.28569 7.13611 -85.4651
54 0.136774 14.0059 0.101874 -12.7531 -4.00765 -2.54293 -87.4229
55 0.0962211 11.2442 2.84665 -15.3567 -14.6804 -10.1716 -90.7189
56 2.81791 14.1201 2.85673 -3.1406 -6.83053 2.42311 -87.1049
57 5.71262 11.3269 -0.0563352 -9.1464 -13.7444 3.19896 -94.3549
58 8.45931 11.2458 2.78069 -0.140042 10.7882 1.73641 -92.1449
59 5.59768 14.0665 2.8187 2.18465 0.397533 -2.35723 -92.2682
60 8.44175 14.1246 0.0169456 7.26976 -2.59055 -5.35209 -93.2421
61 8.41933 11.2904 -0.0184138 17.1579 -0.440956 -1.58496 -85.534
62 5.70371 14.0502 -0.0671419 -6.83015 13.02 7.12849 -85.2714
63 5.6784 11.3008 2.74152 -7.71567 -6.97338 8.70672 -85.7702
64 8.40596 14.1091 2.78284 0.844974 -4.09268 7.17184 -88.9926
65 11.2511 11.3246 0.0411636 0.829463 -9.94722 -8.13753 -92.7034
66 14.0737 11.0978 2.8185 3.93094 6.8772 3.22166 -88.3546
67 11.1852 14.0537 2.84827 6.17057 -0.579337 0.21145 -90.3932
68 14.0903 13.9803 0.0659893 4.26722 -4.40665 3.03156 -90.5699
69 14.099 11.1031 0.0228376 2.40818 10.381 3.58239 -89.0554
70 11.274 14.0827 -0.0106751 0.463344 2.08029 6.09299 -88.7637
71 11.2745 11.1956 2.82627 -0.918874 7.79312 -4.34199 -91.3168
72 14.0558 13.931 2.8804 -10.8571 3.16898 0.506536 -90.3225
73 0.0315198 0.0257712 5.66175 0.00837247 -0.89843 -8.63121 -90.0514
74 2.815 -0.0189318 8.43612 4.94221 -5.05308 -2.40971 -91.964
75 0.0426196 2.75546 8.39605 -1.13253 0.448865 8.88988 -89.8041
76 2.7588 2.85381 5.58629 6.42498 -1.18561 9.35143 -89.9053
77 2.84997 0.0311557 5.6394 -7.21931 -2.24257 -1.86042 -88.1872
78 -0.0340772 2.8114 5.60691 4.32977 3.90348 0.541283 -92.9492
79 -0.0238185 -0.0106373 8.40848 5.34534 2.48759 8.67184 -89.2378
80 2.87527 2.7131 8.39305 -9.16029 13.0934 1.86396 -87.6531
81 5.62135 -0.0746243 5.56108 4.14242 3.44941 6.0729 -92.9144
82 8.57817 0.00417586 8.38725 -12.8626 2.83643 -0.288607 -92.7311
83 5.6744 2.79965 8.37551 -13.6675 7.35017 -2.12999 -94.7984
84 8.4832 2.7232 5.52211 -5.92318 7.83882 5.88188 -91.704
85 8.46342 -0.0374845 5.57433 -3.58512 2.56006 -3.63061 -88.6322
86 5.58312 2.77333 5.58393 4.96832 4.53884 -9.18706 -86.7774
87 5.72925 0.0631792 8.38437 -9.91608 -7.40778 0.949375 -83.7145
88 8.35465 2.81425 8.30457 26.5097 4.838 9.16123 -87.1498
89 11.2698 0.0554718 5.59543 1.39066 2.61238 -2.94136 -91.8863
90 14.0723 -0.00909883 8.43694 -1.81696 0.290329 3.24623 -91.6116
91 11.2265 2.87583 8.44639 0.823427 -3.14149 -8.77755 -91.6044
92 14.0785 2.88138 5.64307 -7.00284 -11.2769 -2.091 -89.2139
93 14.0847 0.0367923 5.652 -2.08827 -3.1524 -7.44985 -88.7494
94 11.2942 2.86976 5.58133 -4.09967 -2.4764 0.386956 -88.7963
95 11.3188 0.0982174 8.38404 -3.58724 -10.9429 4.03304 -88.2557
96 14.0692 2.83418 8.49099 2.36272 -3.47569 -13.2953 -87.2366
97 -0.0966841 5.61308 5.60964 5.90787 1.61232 6.23224 -86.6421
98 2.79817 5.51632 8.41795 8.26441 6.33284 8.11155 -90.0683
99 0.0084141 8.32469 8.33626 -10.6314 8.53992 8.5105 -91.2164
100 2.7626 8.45699 5.62203 4.90549 -0.931318 -4.39824 -90.3792
101 2.76532 5.69683 5.65796 -0.290237 -10.0615 1.66093 -90.6962
102 -0.0346773 8.41528 5.58233 1.10196 -0.917611 -7.54152 -91.1408
103 0.059501 5.53265 8.44394 -9.87124 3.0146 -1.59746 -91.2765
104 2.73716 8.45479 8.41539 2.85265 -6.0581 2.82204 -88.6984
105 5.65323 5.6175 5.59425 -13.3943 -5.0401 4.99065 -90.7487
106 8.4742 5.67469 8.43366 -5.93647 0.925275 5.59706 -91.4363
107 5.46416 8.37861 8.38286 16.779 14.4716 3.07268 -92.9621
108 8.4541 8.33429 5.52828 -5.57148 14.6751 11.4184 -90.493
109 8.37494 5.57657 5.67724 12.2561 -0.167634 -12.074 -90.1305
110 5.60518 8.40269 5.57995 1.91941 1.89081 -0.0164377 -88.35
111 5.60311 5.64286 8.40973 2.39792 -5.7583 4.83906 -87.6342
112 8.38274 8.54166 8.4205 -5.11967 -13.7372 -5.96565 -85.2782
113 11.2123 5.68891 5.56762 -4.3356 -5.72016 10.0203 -90.0087
114 14.0729 5.62411 8.46086 1.95151 -6.82986 2.51982 -92.1435
115 11.181 8.44752 8.44309 2.2404 -3.5554 -0.73351 -93.832
116 14.0481 8.44162 5.67193 -3.76211 -5.83898 -0.157677 -89.303
117 13.9797 5.62209 5.64228 6.87447 5.68904 -1.3194 -90.6894
118 11.2352 8.46675 5.62969 1.46729 -3.82684 -2.57763 -89.9674
119 11.2897 5.61913 8.40172 -10.7593 6.15659 1.79425 -88.3178
120 14.0172 8.34567 8.52186 2.96502 14.4525 -7.44636 -87.0606
121 0.0867576 11.2143 5.55602 -5.77741 4.21039 17.9619 -88.8821
122 2.793 11.2848 8.44606 3.11004 -4.60637 5.58305 -93.5204
123 -0.0231954 14.1021 8.41037 6.01405 -11.9818 7.50715 -90.9647
124 2.76951 14.0745 5.66047 14.7989 -3.64199 1.22355 -91.2719
125 2.85338 11.2058 5.65126 1.65231 8.99497 2.47461 -88.2809
126 0.0648509 14.1008 5.60934 -9.86225 -9.83234 11.1926 -89.687
127 0.0134956 11.2139 8.4435 -4.51922 2.82339 -5.34611 -87.0019
128 2.77362 14.0395 8.48975 -0.648081 6.63215 -5.44547 -87.2435
129 5.69333 11.1895 5.61498 -7.0939 0.279519 0.201683 -94.6789
130 8.39106 11.3374 8.43106 1.00249 -5.93904 -6.39872 -96.3064
131 5.55335 14.1854 8.4856 4.74196 -11.1279 -4.14405 -94.7351
132 8.42517 14.0561 5.6285 -0.557764 -4.05933 -1.23331 -92.5166
133 8.43613 11.2482 5.60437 12.3993 -2.62135 -2.95688 -86.3141
134 5.60047 13.9609 5.65112 -0.641226 11.1379 -2.42247 -86.6609
135 5.60095 11.3115 8.44847 -4.03529 -5.83375 -1.58332 -84.22
136 8.3751 14.0987 8.43897 4.2785 0.521098 -0.494954 -85.994
137 11.3325 11.2347 5.56533 -8.68241 8.18458 11.6696 -90.8424
138 14.0607 11.2046 8.55712 -1.18662 -4.77593 -1.56908 -92.5374
139 11.1925 14.0184 8.39075 4.8507 4.59404 4.8069 -90.9853
140 14.1551 14.0211 5.74015 -9.47 3.2946 -4.6119 -90.1859
141 14.1215 11.1931 5.6783 0.468179 7.34737 -1.27331 -91.216
142 11.267 14.145 5.70198 3.99062 -13.7436 -17.969 -89.5502
143 11.2086 11.2082 8.40915 8.00779 7.82328 -3.64076 -86.5558
144 14.0957 14.008 8.55028 -9.72608 2.29753 -3.11663 -89.3773
145 -0.0628695 -0.0929667 11.2714 10.4352 7.83863 -5.55159 -92.0641
146 2.88378 -0.0323641 14.0146 -5.45711 2.63188 0.675545 -93.443
147 -0.0189837 2.68569 14.0663 9.42294 2.61293 4.77243 -93.4368
148 2.78 2.79611 11.2337 1.37168 3.36587 1.37831 -92.2636
149 2.77517 0.00642617 11.1933 1.24021 -0.448586 8.83732 -87.3908
150 0.0284161 2.75493 11.2862 -3.05655 0.0851665 -12.4976 -86.3416
151 0.00479552 -0.112145 14.0479 1.59833 6.67467 3.11066 -87.6812
152 2.73654 2.83136 14.0965 14.4669 -2.50593 -4.53631 -86.6568
153 5.5821 0.13157 11.2345 -3.8784 -11.5208 -6.004 -92.8995
154 8.51802 0.0760988 13.9885 -13.8128 -5.3958 0.403275 -91.5371
155 5.55967 2.79638 13.9917 0.889626 1.44523 0.975465 -91.5463
156 8.38471 2.88348 11.1154 -2.08946 -5.02128 3.24717 -90.8536
157 8.3174 -0.0309208 11.1866 19.4598 12.0479 1.67278 -87.5322
158 5.55785 2.87323 11.1577 5.61625 6.21116 9.88402 -88.184
159 5.70241 -0.0439368 14.0133 -6.21867 8.70003 -0.0973263 -86.9909
160 8.38438 2.85081 13.9517 -1.4901 -7.10978 -2.12704 -88.3025
161 11.1829 -0.0402598 11.1952 1.74181 -0.24256 2.56611 -89.1627
162 14.0503 -0.0311683 14.0875 0.451746 -3.55741 -3.29468 -88.9249
163 11.1734 2.79355 14.0165 10.3128 -4.39135 -3.96116 -90.5509
164 14.0907 2.70403 11.2132 -5.93386 14.8248 8.50675 -93.4418
165 14.0581 -0.010695 11.2633 -10.9595 -13.8907 2.71707 -89.5003
166 11.1931 2.71269 11.2004 1.01242 10.6964 5.24026 -88.6491
167 11.2301 0.00739996 14.0938 13.3565 3.01514 -17.2884 -91.3424
168 14.1349 2.75976 14.0248 -20.4196 -6.59887 9.98984 -87.9734
169 0.00970496 5.60302 11.2608 -4.73557 0.41049 -6.17681 -91.6208
170 2.75792 5.69773 14.0615 5.99169 -9.78723 5.83946 -91.475
171 -0.0677797 8.32319 13.9996 1.46185 3.38753 -5.94095 -91.1629
172 2.70433 8.50941 11.2006 6.51954 -6.79555 2.92578 -91.0388
173 2.8383 5.62704 11.2975 -10.5818 5.99513 -10.5553 -89.7332
174 -0.105286 8.504 11.1474 5.63949 -17.201 9.65544 -88.2674
175 -0.0268611 5.50815 14.0009 1.53096 8.12897 13.2681 -88.0101
176 2.76942 8.47285 14.0244 -1.58 -8.75973 -4.44891 -88.1878
177 5.57127 5.70706 11.2789 12.2727 -3.25036 -2.35168 -92.4757
178 8.43867 5.59516 14.0877 -2.50045 9.91577 -4.65768 -93.9067
179 5.54524 8.40204 14.0651 7.29623 6.50238 -9.44334 -93.3268
180 8.3458 8.51945 11.2378 12.7817 -3.13902 -2.41427 -94.7924
181 8.45638 5.69228 11.2758 -10.0792 -3.26235 -9.95364 -87.8314
182 5.62897 8.50237 11.2264 -18.3535 -7.32354 -0.921734 -86.8933
183 5.6513 5.62483 14.1118 -11.8191 -3.28321 -11.3126 -86.9851
184 8.38788 8.43375 14.0285 1.01383 2.56521 1.56369 -84.8972
185 11.2139 5.62636 11.2292 4.77419 -3.43579 -1.75245 -93.1718
186 14.0517 5.5022 14.1707 -6.07369 3.49426 -12.0935 -92.0338
187 11.184 8.43716 13.9863 -1.02124 -2.29124 4.87819 -94.1472
188 13.9676 8.36331 11.356 3.96883 3.06605 -11.2504 -93.355
189 14.0024 5.5593 11.2765 7.06212 -2.28522 2.84959 -85.6371
190 11.2178 8.45146 11.2288 -8.73227 0.131999 -1.267 -85.8626
191 11.1989 5.51413 14.0058 9.89702 16.8579 10.606 -86.355
192 13.9726 8.29453 14.0839 5.76169 4.66481 4.8434 -87.9779
193 0.00995564 11.2467 11.2797 -4.50374 2.79578 -0.868606 -93.4844
194 2.84697 11.2369 14.0944 -0.228897 3.46515 1.59325 -94.3868
195 -0.0025518 14.0104 14.1798 7.58468 -9.63848 -6.7861 -92.1488
196 2.79517 14.0491 11.3094 1.95035 1.93936 -0.0409996 -94.1972
197 2.80523 11.2658 11.332 1.37471 -0.885873 -12.4912 -85.4635
198 0.073171 14.0202 11.2838 -20.6422 -2.92167 2.10474 -86.6308
199 0.0699597 11.1465 14.117 -5.49651 7.59251 -6.2191 -86.5204
200 2.84006 14.0341 14.1237 -1.33883 1.90601 -0.380733 -84.8096
201 5.607 11.2601 11.2371 1.87612 6.40412 -1.10487 -93.6694
202 8.45282 11.2679 14.0233 0.641999 -1.63114 0.866012 -93.3515
203 5.67486 13.9835 13.9676 -2.9692 10.6769 13.0365 -93.7247
204 8.35816 14.0628 11.2721 1.39057 0.912599 -4.51143 -92.1686
205 8.45049 11.303 11.1881 -2.21164 -0.0678055 12.4242 -86.4743
206 5.53741 14.1244 11.2686 8.44855 -3.59305 -9.4408 -85.3556
207 5.6283 11.2539 14.0365 5.81117 -9.01263 -4.85587 -85.7057
208 8.47024 14.1084 14.0658 -0.0314291 -4.73228 -4.22235 -87.1491
209 11.2769 11.293 11.2175 -11.8553 -8.14708 1.34854 -93.1993
210 14.1605 11.1573 14.085 -9.48852 -4.91231 12.1535 -92.6872
211 11.2334 14.1183 14.0183 5.30561 -11.1376 -0.670049 -90.4795
212 13.998 14.0324 11.3953 9.83661 -0.202453 -9.03205 -90.2093
213 13.9842 11.2255 11.3946 16.9176 -1.63258 -18.1892 -86.9523
214 11.2324 14.0475 11.1146 -5.96926 7.51382 19.3463 -89.7555
215 11.2772 11.2829 14.0507 -1.97812 -0.957865 1.63073 -85.993
216 14.0748 13.9532 14.1556 -2.83579 10.0578 -2.86406 -90.2118
ITEM: TIMESTEP
20000
ITEM: NUMBER OF ATOMS
216
ITEM: BOX BOUNDS pp pp pp
0.0000000000000000e+00 1.6859999999999999e+01
0.0000000000000000e+00 1.6859999999999999e+01
0.0000000000000000e+00 1.6859999999999999e+01
ITEM: ATOMS id x y z fx fy fz c_1
1 0.0221203 0.116209 0.0138595 3.18106 -22.0671 4.66328 -91.3863
2 2.8566 0.0153302 2.86049 -0.0956586 0.575893 -7.82263 -90.392
3 0.0147706 2.85703 2.79678 -6.10913 -3.04866 8.18624 -89.6906
4 2.72812 2.7136 0.096182 5.19792 10.4774 -8.60695 -90.7693
5 2.85854 -0.0319063 0.0387225 1.46002 -0.725097 -2.57173 -88.2927
6 -0.045757 2.79688 0.0508253 6.16136 13.9385 -4.26995 -89.3206
7 0.0841682 0.0596514 2.84717 -9.80969 -3.10055 -6.20483 -86.218
8 2.77063 2.86664 2.89251 8.79956 -6.36672 -8.57063 -90.3606
9 5.73222 -0.0264138 -0.0221097 -6.78222 4.76074 -8.60091 -89.4268
10 8.44175 -0.0211821 2.76581 5.50125 0.434151 1.06602 -89.8905
11 5.59706 2.78048 2.72891 -0.950674 8.50247 9.09065 -87.9323
12 8.32949 2.80153 -0.0507269 10.1586 6.31219 -1.0896 -89.7317
13 8.52755 0.0331447 -0.0741003 -1.4049 -0.516095 6.39039 -89.1663
14 5.53407 2.776 -0.0148942 5.6363 2.32918 -5.90146 -90.1707
15 5.65625 0.025818 2.72671 -0.565662 -3.13579 9.00356 -91.8817
16 8.43442 2.75899 2.73981 -9.93677 -3.68186 1.06622 -90.7257
17 11.3591 0.00523372 -0.00987527 -9.95632 -2.52863 -0.0315661 -91.8763
18 14.0296 -0.0237248 2.8076 9.33324 -6.29736 5.95869 -92.5102
19 11.1813 2.77456 2.82231 9.92822 -4.28493 -5.84621 -91.1906
20 14.0768 2.74851 0.123751 -9.92878 -1.77298 -22.7654 -89.8045
21 14.0971 -0.152624 0.0501244 0.735496 20.7159 -8.19914 -88.508
22 11.2436 2.84365 -0.0650159 -1.17545 -10.2111 4.57927 -88.2714
23 11.2525 -0.0359834 2.80731 -2.21812 -4.20934 -4.14353 -88.1452
24 14.0545 2.73393 2.80222 -4.28379 9.05434 17.5833 -88.9996
25 -0.002392 5.63405 0.0108913 2.05656 -13.1277 -13.0408 -91.3282
26 2.76287 5.63499 2.85585 7.88644 1.88819 -5.96705 -89.1295
27 0.103327 8.43808 2.86165 -7.39328 2.96687 -0.455056 -89.672
28 2.86445 8.48529 0.0478962 1.48475 -6.01663 3.31357 -89.6641
29 2.81713 5.56192 -0.0225758 -1.61865 6.95519 5.46143 -88.3168