ITEM: TIMESTEP
0
ITEM: NUMBER OF ATOMS
216
ITEM: BOX BOUNDS pp pp pp
0.0000000000000000e+00 1.6859999999999999e+01
0.0000000000000000e+00 1.6859999999999999e+01
0.0000000000000000e+00 1.6859999999999999e+01
ITEM: ATOMS id q mass x y z fx fy fz c_1
1 1 22.9897 0 0 0 1.26121e-13 1.35447e-13 1.2812e-13 -91.9156
2 1 22.9897 2.81 0 2.81 -4.1217e-15 1.27884e-13 9.02056e-17 -91.9156
3 1 22.9897 0 2.81 2.81 1.19904e-13 3.64986e-15 9.85323e-16 -91.9156
4 1 22.9897 2.81 2.81 0 -3.70537e-15 2.56045e-15 1.20406e-13 -91.9156
5 -1 35.453 2.81 0 0 4.996e-15 1.6169e-13 1.70551e-13 -88.501
6 -1 35.453 0 2.81 0 1.68754e-13 2.77556e-15 1.73216e-13 -88.501
7 -1 35.453 0 0 2.81 1.66978e-13 1.66089e-13 6.35603e-15 -88.501
8 -1 35.453 2.81 2.81 2.81 3.48332e-15 -3.38271e-15 -3.67067e-15 -88.501
9 1 22.9897 5.62 0 0 -5.01552e-14 1.40332e-13 1.2923e-13 -91.9156
10 1 22.9897 8.43 0 2.81 1.17199e-13 1.36644e-13 2.33147e-15 -91.9156
11 1 22.9897 5.62 2.81 2.81 -4.46464e-14 4.56579e-15 1.74687e-15 -91.9156
12 1 22.9897 8.43 2.81 0 1.1501e-13 3.51108e-15 1.24216e-13 -91.9156
13 -1 35.453 8.43 0 0 1.2247e-13 1.67494e-13 1.77264e-13 -88.501
14 -1 35.453 5.62 2.81 0 -5.9219e-14 -4.2466e-15 1.68781e-13 -88.501
15 -1 35.453 5.62 0 2.81 -6.18958e-14 1.59872e-13 -1.05471e-15 -88.501
16 -1 35.453 8.43 2.81 2.81 1.26307e-13 -2.44249e-15 -9.94864e-16 -88.501
17 1 22.9897 11.24 0 0 4.66294e-15 1.42109e-13 1.34115e-13 -91.9156
18 1 22.9897 14.05 0 2.81 -1.91847e-13 1.37224e-13 -1.60982e-15 -91.9156
19 1 22.9897 11.24 2.81 2.81 2.63331e-15 3.09301e-15 1.96718e-15 -91.9156
20 1 22.9897 14.05 2.81 0 -1.94511e-13 -7.77156e-16 1.25233e-13 -91.9156
21 -1 35.453 14.05 0 0 -2.27374e-13 1.7053e-13 1.803e-13 -88.501
22 -1 35.453 11.24 2.81 0 -4.88498e-15 -3.33067e-15 1.69795e-13 -88.501
23 -1 35.453 11.24 0 2.81 -2.02616e-15 1.63952e-13 8.67362e-18 -88.501
24 -1 35.453 14.05 2.81 2.81 -2.2865e-13 -4.08007e-15 -2.83107e-15 -88.501
25 1 22.9897 0 5.62 0 1.3145e-13 -5.55112e-14 1.31006e-13 -91.9156
26 1 22.9897 2.81 5.62 2.81 -1.47105e-15 -4.62269e-14 3.7791e-15 -91.9156
27 1 22.9897 0 8.43 2.81 1.28786e-13 1.05808e-13 7.21645e-16 -91.9156
28 1 22.9897 2.81 8.43 0 -1.7486e-15 1.08132e-13 1.28657e-13 -91.9156
29 -1 35.453 2.81 5.62 0 1.22125e-15 -5.69267e-14 1.63466e-13 -88.501
30 -1 35.453 0 8.43 0 1.66978e-13 1.28986e-13 1.79276e-13 -88.501
31 -1 35.453 0 5.62 2.81 1.63425e-13 -6.03961e-14 -2.77556e-16 -88.501
32 -1 35.453 2.81 8.43 2.81 -4.44089e-16 1.32908e-13 -6.06286e-16 -88.501
33 1 22.9897 5.62 5.62 0 -5.15881e-14 -5.04039e-14 1.2458e-13 -91.9156
34 1 22.9897 8.43 5.62 2.81 1.15776e-13 -5.43839e-14 2.38698e-15 -91.9156
35 1 22.9897 5.62 8.43 2.81 -5.22416e-14 1.08179e-13 2.17881e-15 -91.9156
36 1 22.9897 8.43 8.43 0 1.09527e-13 1.02771e-13 1.3272e-13 -91.9156
37 -1 35.453 8.43 5.62 0 1.2839e-13 -6.07713e-14 1.71282e-13 -88.501
38 -1 35.453 5.62 8.43 0 -6.13259e-14 1.36893e-13 1.69506e-13 -88.501
39 -1 35.453 5.62 5.62 2.81 -6.79656e-14 -6.54333e-14 -2.98719e-15 -88.501
40 -1 35.453 8.43 8.43 2.81 1.35321e-13 1.44537e-13 1.81799e-15 -88.501
41 1 22.9897 11.24 5.62 0 -9.29812e-16 -5.64466e-14 1.30035e-13 -91.9156
42 1 22.9897 14.05 5.62 2.81 -1.92443e-13 -5.55166e-14 1.67921e-15 -91.9156
43 1 22.9897 11.24 8.43 2.81 9.02056e-16 1.07081e-13 3.62037e-15 -91.9156
44 1 22.9897 14.05 8.43 0 -1.92735e-13 1.01252e-13 1.42109e-13 -91.9156
45 -1 35.453 14.05 5.62 0 -2.24709e-13 -5.90986e-14 1.72307e-13 -88.501
46 -1 35.453 11.24 8.43 0 -1.27676e-15 1.39361e-13 1.83437e-13 -88.501
47 -1 35.453 11.24 5.62 2.81 -2.2057e-15 -5.89745e-14 -3.5744e-15 -88.501
48 -1 35.453 14.05 8.43 2.81 -2.33591e-13 1.32339e-13 -2.47025e-15 -88.501
49 1 22.9897 0 11.24 0 1.34115e-13 -1.60982e-15 1.33601e-13 -91.9156
50 1 22.9897 2.81 11.24 2.81 -1.73472e-15 -1.39819e-15 2.03743e-15 -91.9156
51 1 22.9897 0 14.05 2.81 1.2701e-13 -1.91847e-13 -1.05471e-15 -91.9156
52 1 22.9897 2.81 14.05 0 -5.71765e-15 -1.93623e-13 1.27426e-13 -91.9156
53 -1 35.453 2.81 11.24 0 1.14492e-15 3.07393e-15 1.68464e-13 -88.501
54 -1 35.453 0 14.05 0 1.72307e-13 -2.27374e-13 1.7697e-13 -88.501
55 -1 35.453 0 11.24 2.81 1.59872e-13 8.32667e-16 5.55112e-17 -88.501
56 -1 35.453 2.81 14.05 2.81 3.40006e-15 -2.34188e-13 -1.01134e-15 -88.501
57 1 22.9897 5.62 11.24 0 -5.32458e-14 -5.10703e-15 1.29146e-13 -91.9156
58 1 22.9897 8.43 11.24 2.81 1.15532e-13 -2.19356e-15 3.25955e-15 -91.9156
59 1 22.9897 5.62 14.05 2.81 -4.86774e-14 -1.92856e-13 3.13638e-15 -91.9156
60 1 22.9897 8.43 14.05 0 1.12208e-13 -1.87406e-13 1.33091e-13 -91.9156
61 -1 35.453 8.43 11.24 0 1.32078e-13 4.38538e-15 1.85188e-13 -88.501
62 -1 35.453 5.62 14.05 0 -6.38292e-14 -2.26857e-13 1.70765e-13 -88.501
63 -1 35.453 5.62 11.24 2.81 -5.97446e-14 4.07487e-15 -3.20317e-15 -88.501
64 -1 35.453 8.43 14.05 2.81 1.19981e-13 -2.41224e-13 -4.08007e-15 -88.501
65 1 22.9897 11.24 11.24 0 2.77556e-15 1.04083e-16 1.33921e-13 -91.9156
66 1 22.9897 14.05 11.24 2.81 -1.92818e-13 4.02456e-16 4.996e-15 -91.9156
67 1 22.9897 11.24 14.05 2.81 3.42781e-15 -1.90266e-13 9.38485e-16 -91.9156
68 1 22.9897 14.05 14.05 0 -1.93179e-13 -1.89182e-13 1.33671e-13 -91.9156
69 -1 35.453 14.05 11.24 0 -2.42473e-13 -2.88658e-15 1.86517e-13 -88.501
70 -1 35.453 11.24 14.05 0 -3.19189e-15 -2.47774e-13 1.83561e-13 -88.501
71 -1 35.453 11.24 11.24 2.81 -1.58033e-15 4.34548e-16 -4.27349e-15 -88.501
72 -1 35.453 14.05 14.05 2.81 -2.38143e-13 -2.33862e-13 -3.96905e-15 -88.501
73 1 22.9897 0 0 5.62 1.28786e-13 1.35003e-13 -5.4623e-14 -91.9156
74 1 22.9897 2.81 0 8.43 -1.66533e-16 1.3594e-13 1.12517e-13 -91.9156
75 1 22.9897 0 2.81 8.43 1.29674e-13 2.88658e-15 1.12577e-13 -91.9156
76 1 22.9897 2.81 2.81 5.62 -5.55112e-16 4.95437e-15 -4.1786e-14 -91.9156
77 -1 35.453 2.81 0 5.62 -6.10623e-16 1.56347e-13 -6.87506e-14 -88.501
78 -1 35.453 0 2.81 5.62 1.63425e-13 -4.38538e-15 -6.21725e-14 -88.501
79 -1 35.453 0 0 8.43 1.74083e-13 1.64313e-13 1.17862e-13 -88.501
80 -1 35.453 2.81 2.81 8.43 -2.22045e-15 -5.29785e-15 1.27568e-13 -88.501
81 1 22.9897 5.62 0 5.62 -4.89869e-14 1.32338e-13 -4.2324e-14 -91.9156
82 1 22.9897 8.43 0 8.43 1.1135e-13 1.38184e-13 1.10457e-13 -91.9156
83 1 22.9897 5.62 2.81 8.43 -4.6171e-14 1.34615e-15 1.18807e-13 -91.9156
84 1 22.9897 8.43 2.81 5.62 1.15713e-13 4.88498e-15 -4.60881e-14 -91.9156
85 -1 35.453 8.43 0 5.62 1.27506e-13 1.62165e-13 -6.90424e-14 -88.501
86 -1 35.453 5.62 2.81 5.62 -6.60717e-14 -3.4972e-15 -7.31464e-14 -88.501
87 -1 35.453 5.62 0 8.43 -6.46894e-14 1.59872e-13 1.24583e-13 -88.501
88 -1 35.453 8.43 2.81 8.43 1.39908e-13 2.08167e-16 1.29448e-13 -88.501
89 1 22.9897 11.24 0 5.62 -3.33067e-16 1.38611e-13 -4.62824e-14 -91.9156
90 1 22.9897 14.05 0 8.43 -1.96287e-13 1.42553e-13 1.08358e-13 -91.9156
91 1 22.9897 11.24 2.81 8.43 2.77556e-17 1.15186e-15 1.14214e-13 -91.9156
92 1 22.9897 14.05 2.81 5.62 -1.94733e-13 1.22125e-15 -4.69208e-14 -91.9156
93 -1 35.453 14.05 0 5.62 -2.23821e-13 1.68754e-13 -7.08322e-14 -88.501
94 -1 35.453 11.24 2.81 5.62 -2.2829e-15 -3.92741e-15 -6.28091e-14 -88.501
95 -1 35.453 11.24 0 8.43 -6.10623e-16 1.71974e-13 1.28564e-13 -88.501
96 -1 35.453 14.05 2.81 8.43 -2.37144e-13 -3.55271e-15 1.2701e-13 -88.501
97 1 22.9897 0 5.62 5.62 1.28564e-13 -5.37348e-14 -4.9738e-14 -91.9156
98 1 22.9897 2.81 5.62 8.43 2.22045e-16 -5.04041e-14 1.11744e-13 -91.9156
99 1 22.9897 0 8.43 8.43 1.3145e-13 1.03639e-13 1.11796e-13 -91.9156
100 1 22.9897 2.81 8.43 5.62 1.11022e-15 1.06733e-13 -4.82253e-14 -91.9156
101 -1 35.453 2.81 5.62 5.62 8.32667e-16 -6.43374e-14 -6.68909e-14 -88.501
102 -1 35.453 0 8.43 5.62 1.66978e-13 1.33187e-13 -6.92779e-14 -88.501
103 -1 35.453 0 5.62 8.43 1.63425e-13 -6.03961e-14 1.25011e-13 -88.501
104 -1 35.453 2.81 8.43 8.43 -2.59515e-15 1.43216e-13 1.42044e-13 -88.501
105 1 22.9897 5.62 5.62 5.62 -5.18821e-14 -5.28752e-14 -4.60632e-14 -91.9156
106 1 22.9897 8.43 5.62 8.43 1.08843e-13 -5.58873e-14 1.12371e-13 -91.9156
107 1 22.9897 5.62 8.43 8.43 -5.5564e-14 1.0357e-13 1.1052e-13 -91.9156
108 1 22.9897 8.43 8.43 5.62 1.12503e-13 1.03906e-13 -4.79842e-14 -91.9156
109 -1 35.453 8.43 5.62 5.62 1.33212e-13 -6.68489e-14 -6.62827e-14 -88.501
110 -1 35.453 5.62 8.43 5.62 -6.63187e-14 1.42312e-13 -7.58656e-14 -88.501
111 -1 35.453 5.62 5.62 8.43 -7.17057e-14 -6.60359e-14 1.34245e-13 -88.501
112 -1 35.453 8.43 8.43 8.43 1.43133e-13 1.4629e-13 1.3301e-13 -88.501
113 1 22.9897 11.24 5.62 5.62 -8.24385e-16 -5.49873e-14 -4.91756e-14 -91.9156
114 1 22.9897 14.05 5.62 8.43 -1.93623e-13 -5.33055e-14 1.10134e-13 -91.9156
115 1 22.9897 11.24 8.43 8.43 1.77636e-15 1.09746e-13 1.13159e-13 -91.9156
116 1 22.9897 14.05 8.43 5.62 -1.95399e-13 1.03473e-13 -4.92939e-14 -91.9156
117 -1 35.453 14.05 5.62 5.62 -2.34104e-13 -6.55699e-14 -6.40946e-14 -88.501
118 -1 35.453 11.24 8.43 5.62 -4.4964e-15 1.40415e-13 -7.2109e-14 -88.501
119 -1 35.453 11.24 5.62 8.43 -2.16493e-15 -6.74579e-14 1.36571e-13 -88.501
120 -1 35.453 14.05 8.43 8.43 -2.30926e-13 1.33227e-13 1.27898e-13 -88.501
121 1 22.9897 0 11.24 5.62 1.36779e-13 -2.33147e-15 -4.79616e-14 -91.9156
122 1 22.9897 2.81 11.24 8.43 2.51188e-15 -3.81639e-15 1.12436e-13 -91.9156
123 1 22.9897 0 14.05 8.43 1.33671e-13 -1.91847e-13 1.09246e-13 -91.9156
124 1 22.9897 2.81 14.05 5.62 5.55112e-16 -1.93484e-13 -4.7129e-14 -91.9156
125 -1 35.453 2.81 11.24 5.62 -7.35523e-16 5.23886e-15 -6.3366e-14 -88.501
126 -1 35.453 0 14.05 5.62 1.72307e-13 -2.30926e-13 -6.39488e-14 -88.501
127 -1 35.453 0 11.24 8.43 1.79412e-13 2.77556e-15 1.27412e-13 -88.501
128 -1 35.453 2.81 14.05 8.43 -1.44329e-15 -2.35756e-13 1.3152e-13 -88.501
129 1 22.9897 5.62 11.24 5.62 -5.29858e-14 -6.39e-15 -4.96612e-14 -91.9156
130 1 22.9897 8.43 11.24 8.43 1.15268e-13 -1.11022e-16 1.1582e-13 -91.9156
131 1 22.9897 5.62 14.05 8.43 -5.24554e-14 -1.88221e-13 1.13034e-13 -91.9156
132 1 22.9897 8.43 14.05 5.62 1.13036e-13 -1.89716e-13 -4.54411e-14 -91.9156
133 -1 35.453 8.43 11.24 5.62 1.3639e-13 1.95229e-15 -7.41629e-14 -88.501
134 -1 35.453 5.62 14.05 5.62 -7.16623e-14 -2.28191e-13 -5.98911e-14 -88.501
135 -1 35.453 5.62 11.24 8.43 -7.04981e-14 -4.71845e-16 1.37334e-13 -88.501
136 -1 35.453 8.43 14.05 8.43 1.24127e-13 -2.40697e-13 1.25097e-13 -88.501
137 1 22.9897 11.24 11.24 5.62 1.74513e-15 -1.45023e-15 -4.31712e-14 -91.9156
138 1 22.9897 14.05 11.24 8.43 -1.96287e-13 -3.66374e-15 1.13687e-13 -91.9156
139 1 22.9897 11.24 14.05 8.43 -1.27676e-15 -1.94483e-13 1.10953e-13 -91.9156
140 1 22.9897 14.05 14.05 5.62 -1.94184e-13 -1.8995e-13 -5.10295e-14 -91.9156
141 -1 35.453 14.05 11.24 5.62 -2.4139e-13 -1.83187e-15 -7.30596e-14 -88.501
142 -1 35.453 11.24 14.05 5.62 8.80811e-16 -2.45816e-13 -7.49925e-14 -88.501
143 -1 35.453 11.24 11.24 8.43 -1.38778e-15 2.28983e-15 1.42733e-13 -88.501
144 -1 35.453 14.05 14.05 8.43 -2.34479e-13 -2.3892e-13 1.29674e-13 -88.501
145 1 22.9897 0 0 11.24 1.34115e-13 1.41664e-13 6.66134e-16 -91.9156
146 1 22.9897 2.81 0 14.05 -2.05391e-15 1.37723e-13 -2.00881e-13 -91.9156
147 1 22.9897 0 2.81 14.05 1.28786e-13 1.33227e-15 -1.96732e-13 -91.9156
148 1 22.9897 2.81 2.81 11.24 1.29063e-15 3.3697e-15 3.30985e-15 -91.9156
149 -1 35.453 2.81 0 11.24 -8.74301e-16 1.59886e-13 4.89192e-15 -88.501
150 -1 35.453 0 2.81 11.24 1.61648e-13 -5.27356e-16 -2.96985e-15 -88.501
151 -1 35.453 0 0 14.05 1.74083e-13 1.68754e-13 -2.28262e-13 -88.501
152 -1 35.453 2.81 2.81 14.05 -1.38778e-16 -1.51615e-15 -2.28623e-13 -88.501
153 1 22.9897 5.62 0 11.24 -5.00086e-14 1.38555e-13 -5.31519e-15 -91.9156
154 1 22.9897 8.43 0 14.05 1.09997e-13 1.41737e-13 -2.00937e-13 -91.9156
155 1 22.9897 5.62 2.81 14.05 -5.13968e-14 3.55271e-15 -2.0026e-13 -91.9156
156 1 22.9897 8.43 2.81 11.24 1.11141e-13 2.04003e-15 -1.94723e-15 -91.9156
157 -1 35.453 8.43 0 11.24 1.30167e-13 1.78388e-13 5.2458e-15 -88.501
158 -1 35.453 5.62 2.81 11.24 -6.49448e-14 -2.70617e-15 -3.08954e-15 -88.501
159 -1 35.453 5.62 0 14.05 -6.39532e-14 1.65201e-13 -2.21292e-13 -88.501
160 -1 35.453 8.43 2.81 14.05 1.25961e-13 -3.55271e-15 -2.362e-13 -88.501
161 1 22.9897 11.24 0 11.24 4.44089e-16 1.38806e-13 -9.6971e-16 -91.9156
162 1 22.9897 14.05 0 14.05 -1.89182e-13 1.40332e-13 -1.95621e-13 -91.9156
163 1 22.9897 11.24 2.81 14.05 1.37737e-15 2.3731e-15 -1.97155e-13 -91.9156
164 1 22.9897 14.05 2.81 11.24 -1.9619e-13 8.60423e-16 8.46545e-16 -91.9156
165 -1 35.453 14.05 0 11.24 -2.42473e-13 1.73195e-13 -2.77556e-16 -88.501
166 -1 35.453 11.24 2.81 11.24 1.4988e-15 -2.85969e-15 1.49793e-15 -88.501
167 -1 35.453 11.24 0 14.05 -2.55351e-15 1.77358e-13 -2.43361e-13 -88.501
168 -1 35.453 14.05 2.81 14.05 -2.35534e-13 -1.44329e-15 -2.31426e-13 -88.501
169 1 22.9897 0 5.62 11.24 1.33227e-13 -5.50671e-14 -2.96985e-15 -91.9156
170 1 22.9897 2.81 5.62 14.05 8.88178e-16 -5.41789e-14 -1.98314e-13 -91.9156
171 1 22.9897 0 8.43 14.05 1.35891e-13 1.06925e-13 -1.98508e-13 -91.9156
172 1 22.9897 2.81 8.43 11.24 4.44089e-16 1.06343e-13 -1.66533e-15 -91.9156
173 -1 35.453 2.81 5.62 11.24 -1.6237e-15 -5.73708e-14 -8.1532e-16 -88.501
174 -1 35.453 0 8.43 11.24 1.75859e-13 1.36096e-13 3.55271e-15 -88.501
175 -1 35.453 0 5.62 14.05 1.72307e-13 -5.86198e-14 -2.27374e-13 -88.501
176 -1 35.453 2.81 8.43 14.05 -9.15934e-16 1.31376e-13 -2.35895e-13 -88.501
177 1 22.9897 5.62 5.62 11.24 -5.09176e-14 -5.82592e-14 -2.80896e-15 -91.9156
178 1 22.9897 8.43 5.62 14.05 1.09682e-13 -5.50747e-14 -1.96122e-13 -91.9156
179 1 22.9897 5.62 8.43 14.05 -5.32855e-14 1.04539e-13 -1.99071e-13 -91.9156
180 1 22.9897 8.43 8.43 11.24 1.11606e-13 1.06e-13 7.91407e-16 -91.9156
181 -1 35.453 8.43 5.62 11.24 1.40109e-13 -6.94114e-14 -8.8917e-16 -88.501
182 -1 35.453 5.62 8.43 11.24 -7.40138e-14 1.45807e-13 -3.44202e-16 -88.501
183 -1 35.453 5.62 5.62 14.05 -7.02398e-14 -6.41737e-14 -2.15684e-13 -88.501
184 -1 35.453 8.43 8.43 14.05 1.29177e-13 1.33732e-13 -2.39384e-13 -88.501
185 1 22.9897 11.24 5.62 11.24 -2.86837e-15 -5.73054e-14 -1.71304e-15 -91.9156
186 1 22.9897 14.05 5.62 14.05 -1.92598e-13 -5.58009e-14 -1.95961e-13 -91.9156
187 1 22.9897 11.24 8.43 14.05 -6.10623e-16 1.07386e-13 -2.02019e-13 -91.9156
188 1 22.9897 14.05 8.43 11.24 -1.94511e-13 1.08802e-13 -1.42941e-15 -91.9156
189 -1 35.453 14.05 5.62 11.24 -2.42473e-13 -6.18524e-14 -5.27356e-16 -88.501
190 -1 35.453 11.24 8.43 11.24 -7.77156e-16 1.45467e-13 3.80165e-15 -88.501
191 -1 35.453 11.24 5.62 14.05 1.06379e-15 -6.74575e-14 -2.34354e-13 -88.501
192 -1 35.453 14.05 8.43 14.05 -2.43361e-13 1.28786e-13 -2.30482e-13 -88.501
193 1 22.9897 0 11.24 11.24 1.28786e-13 -1.4988e-15 5.41234e-16 -91.9156
194 1 22.9897 2.81 11.24 14.05 -1.60982e-15 -1.95677e-15 -1.97856e-13 -91.9156
195 1 22.9897 0 14.05 14.05 1.33005e-13 -1.87406e-13 -1.92291e-13 -91.9156
196 1 22.9897 2.81 14.05 11.24 -1.249e-15 -1.9279e-13 -7.40727e-16 -91.9156
197 -1 35.453 2.81 11.24 11.24 -6.80012e-16 -1.43115e-16 5.43836e-16 -88.501
198 -1 35.453 0 14.05 11.24 1.86517e-13 -2.45137e-13 -9.4369e-16 -88.501
199 -1 35.453 0 11.24 14.05 1.84741e-13 4.94049e-15 -2.42473e-13 -88.501
200 -1 35.453 2.81 14.05 14.05 6.10623e-15 -2.41862e-13 -2.24987e-13 -88.501
201 1 22.9897 5.62 11.24 11.24 -5.01583e-14 -1.80411e-15 -5.69857e-16 -91.9156
202 1 22.9897 8.43 11.24 14.05 1.10562e-13 -1.56124e-15 -2.03297e-13 -91.9156
203 1 22.9897 5.62 14.05 14.05 -5.02679e-14 -1.93705e-13 -1.99287e-13 -91.9156
204 1 22.9897 8.43 14.05 11.24 1.1641e-13 -1.94067e-13 -1.92901e-15 -91.9156
205 -1 35.453 8.43 11.24 11.24 1.37439e-13 5.87204e-16 2.67234e-15 -88.501
206 -1 35.453 5.62 14.05 11.24 -7.2109e-14 -2.40179e-13 -1.38778e-16 -88.501
207 -1 35.453 5.62 11.24 14.05 -7.44292e-14 2.30234e-15 -2.3424e-13 -88.501
208 -1 35.453 8.43 14.05 14.05 1.15614e-13 -2.4183e-13 -2.312e-13 -88.501
209 1 22.9897 11.24 11.24 11.24 -1.0842e-15 -4.25007e-17 8.58688e-17 -91.9156
210 1 22.9897 14.05 11.24 14.05 -1.95705e-13 -6.10623e-16 -2.02019e-13 -91.9156
211 1 22.9897 11.24 14.05 14.05 3.12569e-15 -1.89639e-13 -1.98303e-13 -91.9156
212 1 22.9897 14.05 14.05 11.24 -1.96551e-13 -1.93567e-13 5.55112e-17 -91.9156
213 -1 35.453 14.05 11.24 11.24 -2.56573e-13 8.04912e-16 -2.77556e-17 -88.501
214 -1 35.453 11.24 14.05 11.24 -2.25514e-17 -2.58491e-13 -2.01228e-16 -88.501
215 -1 35.453 11.24 11.24 14.05 -8.63892e-16 -2.22045e-16 -2.50975e-13 -88.501
216 -1 35.453 14.05 14.05 14.05 -2.46308e-13 -2.50577e-13 -2.27017e-13 -88.501
ITEM: TIMESTEP
10000
ITEM: NUMBER OF ATOMS
216
ITEM: BOX BOUNDS pp pp pp
0.0000000000000000e+00 1.6859999999999999e+01
0.0000000000000000e+00 1.6859999999999999e+01
0.0000000000000000e+00 1.6859999999999999e+01
ITEM: ATOMS id q mass x y z fx fy fz c_1
1 1 22.9897 -0.0185092 0.0176052 -0.00424728 11.0532 -8.78525 6.26519 -92.96
2 1 22.9897 2.80639 0.0366289 2.88012 -1.24388 -3.53524 -13.4381 -93.4272
3 1 22.9897 0.0273245 2.80041 2.89654 2.31318 0.826348 -3.31022 -90.7832
4 1 22.9897 2.85182 2.82475 0.136043 -4.32219 -6.43867 -9.63659 -92.6523
5 -1 35.453 2.84144 -0.0286738 0.0808987 -7.44345 3.96075 -7.11645 -84.0524
6 -1 35.453 0.002063 2.79779 0.067931 6.20352 -7.75527 0.759748 -89.3545
7 -1 35.453 0.00421559 -0.0180657 2.85426 -2.95803 2.78085 -2.80517 -86.3493
8 -1 35.453 2.87058 2.80765 2.87646 -4.82046 7.61335 4.07013 -88.3892
9 1 22.9897 5.62369 -0.0111699 0.0215718 1.06517 1.17902 -4.42631 -94.325
10 1 22.9897 8.42463 -0.066663 2.79297 -1.51437 3.34512 -1.98327 -92.1217
11 1 22.9897 5.69977 2.79345 2.77976 -2.59051 3.70774 2.18675 -91.3783
12 1 22.9897 8.4003 2.80945 -0.0939707 6.20915 -0.705334 10.5105 -92.0992
13 -1 35.453 8.43967 -0.0070114 -0.0557739 0.755003 3.16142 3.81574 -86.7707
14 -1 35.453 5.62121 2.7829 -0.0293048 1.10509 6.96991 3.2429 -87.157
15 -1 35.453 5.59229 0.0266195 2.80991 9.4703 -4.99554 -1.44023 -86.8932
16 -1 35.453 8.50934 2.72836 2.78605 -4.27425 6.87751 -3.2218 -88.8129
17 1 22.9897 11.267 -0.0190192 -0.035102 -3.57212 6.93306 3.45267 -91.03
18 1 22.9897 14.0216 -0.0483074 2.83607 3.85015 2.0989 9.43486 -92.9079
19 1 22.9897 11.3237 2.74045 2.68286 -5.41409 1.98617 12.8748 -92.3903
20 1 22.9897 14.1136 2.77781 0.0213415 -9.36252 5.40619 -8.96854 -89.1609
21 -1 35.453 14.0808 -0.0269985 0.0847479 -4.87719 1.71412 -13.6098 -90.4604
22 -1 35.453 11.2643 2.87389 -0.0489589 0.067044 -11.4262 -11.1196 -88.9048
23 -1 35.453 11.2176 -0.0686335 2.73318 3.9958 -0.549314 9.55257 -87.783
24 -1 35.453 14.0884 2.7904 2.77233 1.6807 -1.96732 8.9867 -88.3112
25 1 22.9897 0.053398 5.50723 0.0705592 -14.5634 18.1041 -11.5824 -90.3944
26 1 22.9897 2.7979 5.64686 2.8586 1.4491 -2.06775 -1.64369 -91.9711
27 1 22.9897 0.0537575 8.44701 2.81585 -0.810103 4.45146 4.42684 -90.406
28 1 22.9897 2.84912 8.52358 0.0228979 -9.00263 -12.0762 0.833036 -90.6672
29 -1 35.453 2.76877 5.60907 0.0660489 11.0777 8.46995 -1.40477 -88.0691
30 -1 35.453 0.0281266 8.44116 0.0452882 -5.03103 -10.7358 0.855681 -86.9589
31 -1 35.453 -0.0254368 5.66841 2.82008 10.2947 -7.349 9.67842 -89.3197
32 -1 35.453 2.9082 8.4447 2.81026 -6.59525 0.713342 6.64636 -89.6078
33 1 22.9897 5.62401 5.64091 -0.0691511 -5.612 -6.20197 3.78906 -90.9782
34 1 22.9897 8.38578 5.56569 2.75023 7.66852 -1.85864 5.84163 -88.8501
35 1 22.9897 5.71842 8.42157 2.7677 -7.49968 4.73478 2.56421 -88.7537
36 1 22.9897 8.35768 8.39025 0.0456423 7.73809 8.6411 -9.57145 -92.3828
37 -1 35.453 8.40951 5.63764 -0.0222908 1.00283 -7.60714 -4.16942 -88.0387
38 -1 35.453 5.59286 8.42347 -0.0363633 0.960232 6.89175 14.1205 -88.5266
39 -1 35.453 5.61987 5.63346 2.71508 0.499944 -6.0779 7.96914 -90.1707
40 -1 35.453 8.47189 8.40751 2.81937 2.04309 -4.69461 4.03852 -91.9238
41 1 22.9897 11.2266 5.65426 0.00921053 -1.49557 2.57183 -10.9715 -93.419
42 1 22.9897 14.114 5.58266 2.73986 -13.4729 5.76416 1.7922 -90.9934
43 1 22.9897 11.2974 8.33351 2.89888 -2.93784 4.24878 -13.2259 -90.256
44 1 22.9897 13.9887 8.45038 0.00153093 3.86757 -3.42416 -1.52827 -93.9141
45 -1 35.453 14.023 5.63063 -0.0255809 6.91381 -4.08935 -2.28609 -87.3584
46 -1 35.453 11.1891 8.45561 -0.029768 -3.42271 2.8624 5.26602 -85.7344
47 -1 35.453 11.2184 5.57091 2.75969 2.93763 -0.796587 5.46155 -88.5466
48 -1 35.453 14.0597 8.46313 2.75431 7.17865 -8.89593 14.6601 -88.3689
49 1 22.9897 0.0172912 11.2041 0.048642 -3.58352 4.72605 1.10017 -92.4526
50 1 22.9897 2.885 11.2113 2.9108 -6.93601 10.1366 -13.8443 -89.6353
51 1 22.9897 -0.00717027 14.0358 2.9024 7.62204 9.35392 -12.6763 -93.278
52 1 22.9897 2.83402 13.9666 -0.00478515 -3.51613 17.5869 -0.299539 -94.7205
53 -1 35.453 2.79612 11.2649 0.0142231 -1.34002 -7.55713 5.9551 -86.5424
54 -1 35.453 0.0868314 14.0162 -0.0318314 -15.2683 2.78858 10.1002 -85.3956
55 -1 35.453 0.0550218 11.3134 2.87022 -0.842272 -16.8864 -4.98908 -88.8229
56 -1 35.453 2.84249 14.1051 2.8044 -6.1279 -11.0873 0.331319 -85.2424
57 1 22.9897 5.52709 11.3057 -0.0466866 8.63441 -6.21926 1.07375 -91.2874
58 1 22.9897 8.48111 11.1794 2.7954 -7.09255 5.55355 -1.3871 -88.6565
59 1 22.9897 5.62485 14.0722 2.72201 1.89634 4.09907 -0.868207 -91.9799
60 1 22.9897 8.36813 14.0651 -0.0271618 3.47995 -2.74553 -9.62736 -93.1723
61 -1 35.453 8.3126 11.2404 -0.0630819 11.2734 -1.95154 7.57326 -86.8469
62 -1 35.453 5.56203 14.0701 -0.0836685 12.0194 1.84526 1.87886 -85.393
63 -1 35.453 5.63723 11.3067 2.7393 6.46266 -13.6374 3.58424 -89.8776
64 -1 35.453 8.46193 14.0192 2.72691 -6.91502 -6.61211 9.29675 -89.9353
65 1 22.9897 11.1614 11.3213 0.039081 1.46845 -10.5631 -8.30398 -92.9083
66 1 22.9897 14.0616 11.2257 2.78321 3.80216 2.24386 7.53471 -90.9959
67 1 22.9897 11.209 13.9351 2.84184 10.8401 8.50062 -11.2826 -89.3803
68 1 22.9897 14.0696 14.0249 -0.0287495 2.57667 1.15357 8.3267 -91.1585
69 -1 35.453 14.027 11.2302 0.0454356 1.81364 4.69322 -9.02749 -87.9262
70 -1 35.453 11.2242 14.0786 -0.0485568 3.33627 -3.90869 9.43471 -87.6838
71 -1 35.453 11.2585 11.1415 2.83534 -1.95534 5.34842 -6.63508 -90.9999
72 -1 35.453 14.0961 14.0132 2.82027 -13.4657 1.43922 -1.88941 -88.0026
73 1 22.9897 0.0611285 0.00809005 5.66473 -14.6363 3.17459 -4.7984 -92.2205
74 1 22.9897 2.81974 0.0117879 8.50574 7.13649 5.68743 -5.89402 -88.3387
75 1 22.9897 0.0322704 2.70723 8.54123 2.93039 11.5122 -6.09792 -90.963
76 1 22.9897 2.87038 2.75504 5.66558 -3.25082 8.28579 2.92088 -91.6192
77 -1 35.453 2.786 -0.0357537 5.58637 10.2217 10.1384 20.1706 -88.1358
78 -1 35.453 0.00354005 2.82401 5.6719 8.60199 0.714914 1.64951 -88.0052
79 -1 35.453 0.0250455 0.0199608 8.41994 1.01861 -14.3374 13.5397 -88.9889
80 -1 35.453 2.87261 2.81098 8.49194 -3.41244 -9.48268 -1.95663 -88.3866
81 1 22.9897 5.60742 -0.0778478 5.58513 2.05323 8.09356 3.49882 -92.9347
82 1 22.9897 8.57826 -0.0345667 8.41962 -15.4992 2.20266 -3.32797 -92.6511
83 1 22.9897 5.66442 2.78648 8.47353 -12.018 4.75745 -5.55631 -93.5563
84 1 22.9897 8.49449 2.77296 5.6002 -2.6423 -3.83921 -0.282071 -91.9297
85 -1 35.453 8.42708 -0.069076 5.61366 1.42929 5.65342 -4.38267 -87.0869
86 -1 35.453 5.67414 2.7669 5.61834 -1.94971 3.56056 -2.91467 -87.2684
87 -1 35.453 5.73239 -0.0066455 8.38695 -14.0742 0.525041 3.68061 -86.8519
88 -1 35.453 8.34456 2.77957 8.40876 20.5034 8.62063 -1.26848 -87.7073
89 1 22.9897 11.2168 -0.000982074 5.58972 5.8662 0.784317 -4.42096 -92.5977
90 1 22.9897 14.0696 0.043058 8.49259 1.24153 -4.30076 -10.7363 -92.976
91 1 22.9897 11.1247 2.87584 8.38397 11.9625 -7.14973 -5.68332 -89.6222
92 1 22.9897 14.0934 2.88488 5.63717 -2.64478 -8.59174 -3.21215 -93.1638
93 -1 35.453 14.056 0.0619179 5.68791 0.550116 -7.93324 -8.17844 -85.3871
94 -1 35.453 11.307 2.79983 5.58145 -6.29795 2.24927 -2.79848 -88.1055
95 -1 35.453 11.2889 0.0201294 8.37631 3.26537 2.08793 5.00541 -87.7263
96 -1 35.453 14.0961 2.84843 8.43875 -9.00994 -0.255431 -5.59436 -87.8085
97 1 22.9897 -0.0478073 5.64062 5.68778 3.98868 -3.36133 -6.32507 -89.9602
98 1 22.9897 2.79813 5.57508 8.37737 8.69086 4.70814 11.763 -92.4012
99 1 22.9897 0.0058041 8.31199 8.45403 -3.83268 6.05084 5.85008 -89.7066
100 1 22.9897 2.83547 8.48157 5.67547 -2.40626 -4.91622 -4.34094 -89.8419
101 -1 35.453 2.78222 5.66145 5.62669 3.90902 -6.58264 -3.77768 -87.6007
102 -1 35.453 0.0347129 8.43975 5.67988 0.126354 -2.58117 -7.67678 -91.7447
103 -1 35.453 0.0829993 5.47017 8.46559 -19.4652 14.6008 1.18198 -89.3045
104 -1 35.453 2.75679 8.4391 8.46772 -4.34711 -1.39558 2.7137 -88.2306
105 1 22.9897 5.68793 5.60411 5.5393 -9.27077 -8.27539 1.90092 -91.3122
106 1 22.9897 8.40099 5.70085 8.41531 -3.62979 -4.27202 -1.1245 -89.6299
107 1 22.9897 5.4667 8.44068 8.39133 15.9709 1.87816 6.29229 -92.5911
108 1 22.9897 8.54247 8.34086 5.61703 -15.4234 9.29317 4.61254 -88.7338
109 -1 35.453 8.47041 5.57918 5.6345 -3.12291 -1.23127 -8.73765 -91.3717
110 -1 35.453 5.60371 8.34677 5.61853 9.99867 12.3087 -8.59476 -89.7189
111 -1 35.453 5.58414 5.64487 8.34844 4.0536 -2.97001 8.8317 -86.6487
112 -1 35.453 8.3522 8.53235 8.43726 1.26107 -16.7181 -4.83148 -87.2639
113 1 22.9897 11.2231 5.63508 5.54591 5.40602 -4.24788 2.44131 -89.7369
114 1 22.9897 14.0234 5.62644 8.38191 4.65436 -1.54963 -0.225326 -89.8011
115 1 22.9897 11.174 8.39796 8.43836 3.90666 10.876 3.58832 -90.9949
116 1 22.9897 14.1397 8.50952 5.65978 -10.7679 -6.28184 -3.75855 -89.2073
117 -1 35.453 14.0106 5.64254 5.52657 4.96404 9.93563 8.94779 -90.3906
118 -1 35.453 11.2725 8.44517 5.65647 9.38221 0.327755 0.572141 -90.4052
119 -1 35.453 11.2222 5.64204 8.38116 -3.71598 -1.65908 1.09053 -90.9472
120 -1 35.453 14.0576 8.40104 8.49861 -1.85455 5.9111 -10.4922 -90.0743
121 1 22.9897 0.018884 11.2204 5.63417 -1.77996 6.83302 7.60028 -89.856
122 1 22.9897 2.78161 11.3163 8.48426 -0.952657 -6.3174 -2.62716 -90.624
123 1 22.9897 0.0543331 14.0284 8.4467 -16.6817 2.11186 -1.40244 -90.5886
124 1 22.9897 2.7468 14.1057 5.57072 3.32358 -11.2827 1.28253 -90.365
125 -1 35.453 2.79169 11.2697 5.64166 6.83782 2.20596 8.37989 -91.0055
126 -1 35.453 -0.0951363 14.0928 5.66688 17.4693 -7.99244 2.7053 -87.5094
127 -1 35.453 0.000540281 11.2149 8.49275 -3.98862 -2.5141 -5.22904 -88.5502
128 -1 35.453 2.77361 14.1293 8.36554 12.6654 -7.67903 2.14013 -91.4975
129 1 22.9897 5.63491 11.1652 5.52318 -6.6252 4.5865 11.2121 -89.8565
130 1 22.9897 8.33887 11.2635 8.45097 5.23109 5.05196 -0.639574 -94.4403
131 1 22.9897 5.58665 14.1031 8.39187 5.33413 -7.48679 -1.17764 -90.9846
132 1 22.9897 8.41064 14.0038 5.58201 0.330163 -1.09863 -1.36352 -91.2732
133 -1 35.453 8.37726 11.187 5.66678 8.18976 0.243114 -13.1503 -89.2297
134 -1 35.453 5.62432 14.0232 5.50953 -5.31545 -7.58026 10.5518 -87.9567
135 -1 35.453 5.55123 11.2539 8.49771 -0.936109 5.8249 -17.1379 -87.6224
136 -1 35.453 8.43557 14.0475 8.37908 -4.13727 -0.994869 3.21465 -86.1692
137 1 22.9897 11.222 11.2821 5.56014 1.56121 -5.96087 12.3708 -89.8458
138 1 22.9897 14.0381 11.2693 8.51092 -0.970403 -5.13769 -5.19187 -91.6848
139 1 22.9897 11.2423 14.0227 8.36406 -1.72682 6.51285 3.32174 -93.0127
140 1 22.9897 14.0651 14.0164 5.65696 -12.3607 13.9775 2.7936 -91.7748
141 -1 35.453 14.0959 11.2827 5.62007 -7.86282 -7.80676 4.64446 -89.6431
142 -1 35.453 11.2224 14.0602 5.58979 3.82228 -0.885666 -0.110345 -89.8397
143 -1 35.453 11.1904 11.2632 8.37945 5.65515 -9.13497 1.09666 -86.8363
144 -1 35.453 14.0236 14.0572 8.53352 8.73841 0.9747 -10.2279 -87.1169
145 1 22.9897 0.0268534 -0.0769418 11.299 5.18346 3.21693 -5.15186 -89.9728
146 1 22.9897 2.86968 -0.0829239 14.1012 2.51171 9.58365 6.33537 -94.2278
147 1 22.9897 -0.0158439 2.75683 14.1241 11.0553 -0.69833 -1.32869 -92.178
148 1 22.9897 2.82784 2.76517 11.3281 1.15721 3.93197 1.31543 -93.0471
149 -1 35.453 2.92702 -0.0528351 11.321 -14.131 4.933 -9.04562 -89.6693
150 -1 35.453 0.0650071 2.75913 11.3328 -6.99444 -1.30519 -5.691 -87.6985
151 -1 35.453 0.0718736 -0.102948 14.0652 -10.1027 9.33933 2.73236 -88.3048
152 -1 35.453 2.76032 2.83425 14.168 0.930607 -3.41702 -2.3268 -85.9586
153 1 22.9897 5.65498 0.0533567 11.222 -0.596894 1.47878 1.43135 -92.0099
154 1 22.9897 8.47056 6.59869e-05 13.9867 -2.74414 2.07141 2.52679 -92.4743
155 1 22.9897 5.51326 2.86703 14.0256 2.34132 -4.83991 3.60127 -93.3551
156 1 22.9897 8.44022 2.92433 11.1894 -9.52914 -11.3062 4.13122 -89.6363
157 -1 35.453 8.36796 0.00203204 11.1857 20.5189 12.9328 5.46788 -87.5853
158 -1 35.453 5.61149 2.92171 11.2585 3.02999 -10.278 -1.64353 -87.0197
159 -1 35.453 5.70257 -0.0322416 14.0657 -8.03701 9.1039 -3.6234 -84.9055
160 -1 35.453 8.29485 2.87571 14.0281 14.0543 -13.7776 -10.3477 -88.4487
161 1 22.9897 11.2645 0.0320615 11.1949 -4.22251 -4.75074 1.2925 -89.0125
162 1 22.9897 14.037 0.0925537 14.1224 8.22021 -12.7541 -4.90123 -87.3473
163 1 22.9897 11.1727 2.83547 13.9789 3.62125 -0.691182 1.80931 -88.5453
164 1 22.9897 14.0985 2.76128 11.1523 -3.50309 9.56423 11.8453 -89.8056
165 -1 35.453 14.0875 -0.0118387 11.227 -2.29447 1.51971 15.0382 -90.7174
166 -1 35.453 11.1923 2.8023 11.1381 9.0861 3.91605 11.0195 -92.1373
167 -1 35.453 11.2498 0.0458345 14.0656 3.90696 6.16281 -11.6821 -92.451
168 -1 35.453 14.1385 2.82535 13.9874 -23.0138 -6.46492 5.21435 -89.9481
169 1 22.9897 -0.0474585 5.63656 11.2502 3.13761 -7.55835 -0.612348 -92.0762
170 1 22.9897 2.71971 5.7479 14.1585 -1.39233 -10.0806 -6.79708 -92.1217
171 1 22.9897 -0.161114 8.34732 14.1335 14.2042 4.06613 -4.02563 -92.5305
172 1 22.9897 2.71442 8.37701 11.3014 10.8153 3.17544 -2.46321 -92.4504
173 -1 35.453 2.82123 5.58395 11.3254 -12.3789 4.6303 -6.41472 -86.3304
174 -1 35.453 -0.0400524 8.43222 11.2827 -6.62838 -11.7131 -1.03045 -87.8577
175 -1 35.453 -0.097086 5.57042 14.015 10.3915 2.52776 12.1906 -86.8039
176 -1 35.453 2.68697 8.53733 14.0978 4.64822 -11.7215 -1.06291 -87.3189
177 1 22.9897 5.5549 5.70353 11.2591 7.38475 -0.0455769 -6.82989 -93.0512
178 1 22.9897 8.35428 5.59061 13.9732 -2.66239 13.8641 6.39449 -92.107
179 1 22.9897 5.48566 8.54751 14.1393 7.48396 -5.70894 -20.6071 -91.1715
180 1 22.9897 8.3079 8.48403 11.2202 18.2339 -0.571416 3.71311 -92.3485
181 -1 35.453 8.39891 5.68578 11.1853 -2.08802 1.04891 -0.291309 -89.7365
182 -1 35.453 5.62103 8.49032 11.2353 -21.7318 -1.98602 4.5941 -85.9977
183 -1 35.453 5.52256 5.69969 14.0518 2.35385 1.00318 -2.59164 -87.1291
184 -1 35.453 8.35128 8.42261 14.047 -1.7007 -2.26271 -0.0234226 -85.9048
185 1 22.9897 11.1811 5.65027 11.2183 3.80813 0.0752746 -4.30692 -90.1793
186 1 22.9897 14.0042 5.56042 14.014 -7.59691 8.54372 1.9678 -93.1313