LAMMPS data file via write_data, version 28 Mar 2023, timestep = 0, units = real

512 atoms
2 atom types

0 22.48 xlo xhi
0 22.48 ylo yhi
0 22.48 zlo zhi

Masses

1 22.9897
2 35.453

Atoms # charge

1 1 1 0.0 0.0 0.0 0 0 0
2 1 1 2.81 0.0 2.81 0 0 0
3 1 1 0.0 2.81 2.81 0 0 0
4 1 1 2.81 2.81 0.0 0 0 0
5 2 -1 2.81 0.0 0.0 0 0 0
6 2 -1 0.0 2.81 0.0 0 0 0
7 2 -1 0.0 0.0 2.81 0 0 0
8 2 -1 2.81 2.81 2.81 0 0 0
9 1 1 5.62 0.0 0.0 0 0 0
10 1 1 8.43 0.0 2.81 0 0 0
11 1 1 5.62 2.81 2.81 0 0 0
12 1 1 8.43 2.81 0.0 0 0 0
13 2 -1 8.43 0.0 0.0 0 0 0
14 2 -1 5.62 2.81 0.0 0 0 0
15 2 -1 5.62 0.0 2.81 0 0 0
16 2 -1 8.43 2.81 2.81 0 0 0
17 1 1 11.24 0.0 0.0 0 0 0
18 1 1 14.05 0.0 2.81 0 0 0
19 1 1 11.24 2.81 2.81 0 0 0
20 1 1 14.05 2.81 0.0 0 0 0
21 2 -1 14.05 0.0 0.0 0 0 0
22 2 -1 11.24 2.81 0.0 0 0 0
23 2 -1 11.24 0.0 2.81 0 0 0
24 2 -1 14.05 2.81 2.81 0 0 0
25 1 1 16.86 0.0 0.0 0 0 0
26 1 1 19.67 0.0 2.81 0 0 0
27 1 1 16.86 2.81 2.81 0 0 0
28 1 1 19.67 2.81 0.0 0 0 0
29 2 -1 19.67 0.0 0.0 0 0 0
30 2 -1 16.86 2.81 0.0 0 0 0
31 2 -1 16.86 0.0 2.81 0 0 0
32 2 -1 19.67 2.81 2.81 0 0 0
33 1 1 0.0 5.62 0.0 0 0 0
34 1 1 2.81 5.62 2.81 0 0 0
35 1 1 0.0 8.43 2.81 0 0 0
36 1 1 2.81 8.43 0.0 0 0 0
37 2 -1 2.81 5.62 0.0 0 0 0
38 2 -1 0.0 8.43 0.0 0 0 0
39 2 -1 0.0 5.62 2.81 0 0 0
40 2 -1 2.81 8.43 2.81 0 0 0
41 1 1 5.62 5.62 0.0 0 0 0
42 1 1 8.43 5.62 2.81 0 0 0
43 1 1 5.62 8.43 2.81 0 0 0
44 1 1 8.43 8.43 0.0 0 0 0
45 2 -1 8.43 5.62 0.0 0 0 0
46 2 -1 5.62 8.43 0.0 0 0 0
47 2 -1 5.62 5.62 2.81 0 0 0
48 2 -1 8.43 8.43 2.81 0 0 0
49 1 1 11.24 5.62 0.0 0 0 0
50 1 1 14.05 5.62 2.81 0 0 0
51 1 1 11.24 8.43 2.81 0 0 0
52 1 1 14.05 8.43 0.0 0 0 0
53 2 -1 14.05 5.62 0.0 0 0 0
54 2 -1 11.24 8.43 0.0 0 0 0
55 2 -1 11.24 5.62 2.81 0 0 0
56 2 -1 14.05 8.43 2.81 0 0 0
57 1 1 16.86 5.62 0.0 0 0 0
58 1 1 19.67 5.62 2.81 0 0 0
59 1 1 16.86 8.43 2.81 0 0 0
60 1 1 19.67 8.43 0.0 0 0 0
61 2 -1 19.67 5.62 0.0 0 0 0
62 2 -1 16.86 8.43 0.0 0 0 0
63 2 -1 16.86 5.62 2.81 0 0 0
64 2 -1 19.67 8.43 2.81 0 0 0
65 1 1 0.0 11.24 0.0 0 0 0
66 1 1 2.81 11.24 2.81 0 0 0
67 1 1 0.0 14.05 2.81 0 0 0
68 1 1 2.81 14.05 0.0 0 0 0
69 2 -1 2.81 11.24 0.0 0 0 0
70 2 -1 0.0 14.05 0.0 0 0 0
71 2 -1 0.0 11.24 2.81 0 0 0
72 2 -1 2.81 14.05 2.81 0 0 0
73 1 1 5.62 11.24 0.0 0 0 0
74 1 1 8.43 11.24 2.81 0 0 0
75 1 1 5.62 14.05 2.81 0 0 0
76 1 1 8.43 14.05 0.0 0 0 0
77 2 -1 8.43 11.24 0.0 0 0 0
78 2 -1 5.62 14.05 0.0 0 0 0
79 2 -1 5.62 11.24 2.81 0 0 0
80 2 -1 8.43 14.05 2.81 0 0 0
81 1 1 11.24 11.24 0.0 0 0 0
82 1 1 14.05 11.24 2.81 0 0 0
83 1 1 11.24 14.05 2.81 0 0 0
84 1 1 14.05 14.05 0.0 0 0 0
85 2 -1 14.05 11.24 0.0 0 0 0
86 2 -1 11.24 14.05 0.0 0 0 0
87 2 -1 11.24 11.24 2.81 0 0 0
88 2 -1 14.05 14.05 2.81 0 0 0
89 1 1 16.86 11.24 0.0 0 0 0
90 1 1 19.67 11.24 2.81 0 0 0
91 1 1 16.86 14.05 2.81 0 0 0
92 1 1 19.67 14.05 0.0 0 0 0
93 2 -1 19.67 11.24 0.0 0 0 0
94 2 -1 16.86 14.05 0.0 0 0 0
95 2 -1 16.86 11.24 2.81 0 0 0
96 2 -1 19.67 14.05 2.81 0 0 0
97 1 1 0.0 16.86 0.0 0 0 0
98 1 1 2.81 16.86 2.81 0 0 0
99 1 1 0.0 19.67 2.81 0 0 0
100 1 1 2.81 19.67 0.0 0 0 0
101 2 -1 2.81 16.86 0.0 0 0 0
102 2 -1 0.0 19.67 0.0 0 0 0
103 2 -1 0.0 16.86 2.81 0 0 0
104 2 -1 2.81 19.67 2.81 0 0 0
105 1 1 5.62 16.86 0.0 0 0 0
106 1 1 8.43 16.86 2.81 0 0 0
107 1 1 5.62 19.67 2.81 0 0 0
108 1 1 8.43 19.67 0.0 0 0 0
109 2 -1 8.43 16.86 0.0 0 0 0
110 2 -1 5.62 19.67 0.0 0 0 0
111 2 -1 5.62 16.86 2.81 0 0 0
112 2 -1 8.43 19.67 2.81 0 0 0
113 1 1 11.24 16.86 0.0 0 0 0
114 1 1 14.05 16.86 2.81 0 0 0
115 1 1 11.24 19.67 2.81 0 0 0
116 1 1 14.05 19.67 0.0 0 0 0
117 2 -1 14.05 16.86 0.0 0 0 0
118 2 -1 11.24 19.67 0.0 0 0 0
119 2 -1 11.24 16.86 2.81 0 0 0
120 2 -1 14.05 19.67 2.81 0 0 0
121 1 1 16.86 16.86 0.0 0 0 0
122 1 1 19.67 16.86 2.81 0 0 0
123 1 1 16.86 19.67 2.81 0 0 0
124 1 1 19.67 19.67 0.0 0 0 0
125 2 -1 19.67 16.86 0.0 0 0 0
126 2 -1 16.86 19.67 0.0 0 0 0
127 2 -1 16.86 16.86 2.81 0 0 0
128 2 -1 19.67 19.67 2.81 0 0 0
129 1 1 0.0 0.0 5.62 0 0 0
130 1 1 2.81 0.0 8.43 0 0 0
131 1 1 0.0 2.81 8.43 0 0 0
132 1 1 2.81 2.81 5.62 0 0 0
133 2 -1 2.81 0.0 5.62 0 0 0
134 2 -1 0.0 2.81 5.62 0 0 0
135 2 -1 0.0 0.0 8.43 0 0 0
136 2 -1 2.81 2.81 8.43 0 0 0
137 1 1 5.62 0.0 5.62 0 0 0
138 1 1 8.43 0.0 8.43 0 0 0
139 1 1 5.62 2.81 8.43 0 0 0
140 1 1 8.43 2.81 5.62 0 0 0
141 2 -1 8.43 0.0 5.62 0 0 0
142 2 -1 5.62 2.81 5.62 0 0 0
143 2 -1 5.62 0.0 8.43 0 0 0
144 2 -1 8.43 2.81 8.43 0 0 0
145 1 1 11.24 0.0 5.62 0 0 0
146 1 1 14.05 0.0 8.43 0 0 0
147 1 1 11.24 2.81 8.43 0 0 0
148 1 1 14.05 2.81 5.62 0 0 0
149 2 -1 14.05 0.0 5.62 0 0 0
150 2 -1 11.24 2.81 5.62 0 0 0
151 2 -1 11.24 0.0 8.43 0 0 0
152 2 -1 14.05 2.81 8.43 0 0 0
153 1 1 16.86 0.0 5.62 0 0 0
154 1 1 19.67 0.0 8.43 0 0 0
155 1 1 16.86 2.81 8.43 0 0 0
156 1 1 19.67 2.81 5.62 0 0 0
157 2 -1 19.67 0.0 5.62 0 0 0
158 2 -1 16.86 2.81 5.62 0 0 0
159 2 -1 16.86 0.0 8.43 0 0 0
160 2 -1 19.67 2.81 8.43 0 0 0
161 1 1 0.0 5.62 5.62 0 0 0
162 1 1 2.81 5.62 8.43 0 0 0
163 1 1 0.0 8.43 8.43 0 0 0
164 1 1 2.81 8.43 5.62 0 0 0
165 2 -1 2.81 5.62 5.62 0 0 0
166 2 -1 0.0 8.43 5.62 0 0 0
167 2 -1 0.0 5.62 8.43 0 0 0
168 2 -1 2.81 8.43 8.43 0 0 0
169 1 1 5.62 5.62 5.62 0 0 0
170 1 1 8.43 5.62 8.43 0 0 0
171 1 1 5.62 8.43 8.43 0 0 0
172 1 1 8.43 8.43 5.62 0 0 0
173 2 -1 8.43 5.62 5.62 0 0 0
174 2 -1 5.62 8.43 5.62 0 0 0
175 2 -1 5.62 5.62 8.43 0 0 0
176 2 -1 8.43 8.43 8.43 0 0 0
177 1 1 11.24 5.62 5.62 0 0 0
178 1 1 14.05 5.62 8.43 0 0 0
179 1 1 11.24 8.43 8.43 0 0 0
180 1 1 14.05 8.43 5.62 0 0 0
181 2 -1 14.05 5.62 5.62 0 0 0
182 2 -1 11.24 8.43 5.62 0 0 0
183 2 -1 11.24 5.62 8.43 0 0 0
184 2 -1 14.05 8.43 8.43 0 0 0
185 1 1 16.86 5.62 5.62 0 0 0
186 1 1 19.67 5.62 8.43 0 0 0
187 1 1 16.86 8.43 8.43 0 0 0
188 1 1 19.67 8.43 5.62 0 0 0
189 2 -1 19.67 5.62 5.62 0 0 0
190 2 -1 16.86 8.43 5.62 0 0 0
191 2 -1 16.86 5.62 8.43 0 0 0
192 2 -1 19.67 8.43 8.43 0 0 0
193 1 1 0.0 11.24 5.62 0 0 0
194 1 1 2.81 11.24 8.43 0 0 0
195 1 1 0.0 14.05 8.43 0 0 0
196 1 1 2.81 14.05 5.62 0 0 0
197 2 -1 2.81 11.24 5.62 0 0 0
198 2 -1 0.0 14.05 5.62 0 0 0
199 2 -1 0.0 11.24 8.43 0 0 0
200 2 -1 2.81 14.05 8.43 0 0 0
201 1 1 5.62 11.24 5.62 0 0 0
202 1 1 8.43 11.24 8.43 0 0 0
203 1 1 5.62 14.05 8.43 0 0 0
204 1 1 8.43 14.05 5.62 0 0 0
205 2 -1 8.43 11.24 5.62 0 0 0
206 2 -1 5.62 14.05 5.62 0 0 0
207 2 -1 5.62 11.24 8.43 0 0 0
208 2 -1 8.43 14.05 8.43 0 0 0
209 1 1 11.24 11.24 5.62 0 0 0
210 1 1 14.05 11.24 8.43 0 0 0
211 1 1 11.24 14.05 8.43 0 0 0
212 1 1 14.05 14.05 5.62 0 0 0
213 2 -1 14.05 11.24 5.62 0 0 0
214 2 -1 11.24 14.05 5.62 0 0 0
215 2 -1 11.24 11.24 8.43 0 0 0
216 2 -1 14.05 14.05 8.43 0 0 0
217 1 1 16.86 11.24 5.62 0 0 0
218 1 1 19.67 11.24 8.43 0 0 0
219 1 1 16.86 14.05 8.43 0 0 0
220 1 1 19.67 14.05 5.62 0 0 0
221 2 -1 19.67 11.24 5.62 0 0 0
222 2 -1 16.86 14.05 5.62 0 0 0
223 2 -1 16.86 11.24 8.43 0 0 0
224 2 -1 19.67 14.05 8.43 0 0 0
225 1 1 0.0 16.86 5.62 0 0 0
226 1 1 2.81 16.86 8.43 0 0 0
227 1 1 0.0 19.67 8.43 0 0 0
228 1 1 2.81 19.67 5.62 0 0 0
229 2 -1 2.81 16.86 5.62 0 0 0
230 2 -1 0.0 19.67 5.62 0 0 0
231 2 -1 0.0 16.86 8.43 0 0 0
232 2 -1 2.81 19.67 8.43 0 0 0
233 1 1 5.62 16.86 5.62 0 0 0
234 1 1 8.43 16.86 8.43 0 0 0
235 1 1 5.62 19.67 8.43 0 0 0
236 1 1 8.43 19.67 5.62 0 0 0
237 2 -1 8.43 16.86 5.62 0 0 0
238 2 -1 5.62 19.67 5.62 0 0 0
239 2 -1 5.62 16.86 8.43 0 0 0
240 2 -1 8.43 19.67 8.43 0 0 0
241 1 1 11.24 16.86 5.62 0 0 0
242 1 1 14.05 16.86 8.43 0 0 0
243 1 1 11.24 19.67 8.43 0 0 0
244 1 1 14.05 19.67 5.62 0 0 0
245 2 -1 14.05 16.86 5.62 0 0 0
246 2 -1 11.24 19.67 5.62 0 0 0
247 2 -1 11.24 16.86 8.43 0 0 0
248 2 -1 14.05 19.67 8.43 0 0 0
249 1 1 16.86 16.86 5.62 0 0 0
250 1 1 19.67 16.86 8.43 0 0 0
251 1 1 16.86 19.67 8.43 0 0 0
252 1 1 19.67 19.67 5.62 0 0 0
253 2 -1 19.67 16.86 5.62 0 0 0
254 2 -1 16.86 19.67 5.62 0 0 0
255 2 -1 16.86 16.86 8.43 0 0 0
256 2 -1 19.67 19.67 8.43 0 0 0
257 1 1 0.0 0.0 11.24 0 0 0
258 1 1 2.81 0.0 14.05 0 0 0
259 1 1 0.0 2.81 14.05 0 0 0
260 1 1 2.81 2.81 11.24 0 0 0
261 2 -1 2.81 0.0 11.24 0 0 0
262 2 -1 0.0 2.81 11.24 0 0 0
263 2 -1 0.0 0.0 14.05 0 0 0
264 2 -1 2.81 2.81 14.05 0 0 0
265 1 1 5.62 0.0 11.24 0 0 0
266 1 1 8.43 0.0 14.05 0 0 0
267 1 1 5.62 2.81 14.05 0 0 0
268 1 1 8.43 2.81 11.24 0 0 0
269 2 -1 8.43 0.0 11.24 0 0 0
270 2 -1 5.62 2.81 11.24 0 0 0
271 2 -1 5.62 0.0 14.05 0 0 0
272 2 -1 8.43 2.81 14.05 0 0 0
273 1 1 11.24 0.0 11.24 0 0 0
274 1 1 14.05 0.0 14.05 0 0 0
275 1 1 11.24 2.81 14.05 0 0 0
276 1 1 14.05 2.81 11.24 0 0 0
277 2 -1 14.05 0.0 11.24 0 0 0
278 2 -1 11.24 2.81 11.24 0 0 0
279 2 -1 11.24 0.0 14.05 0 0 0
280 2 -1 14.05 2.81 14.05 0 0 0
281 1 1 16.86 0.0 11.24 0 0 0
282 1 1 19.67 0.0 14.05 0 0 0
283 1 1 16.86 2.81 14.05 0 0 0
284 1 1 19.67 2.81 11.24 0 0 0
285 2 -1 19.67 0.0 11.24 0 0 0
286 2 -1 16.86 2.81 11.24 0 0 0
287 2 -1 16.86 0.0 14.05 0 0 0
288 2 -1 19.67 2.81 14.05 0 0 0
289 1 1 0.0 5.62 11.24 0 0 0
290 1 1 2.81 5.62 14.05 0 0 0
291 1 1 0.0 8.43 14.05 0 0 0
292 1 1 2.81 8.43 11.24 0 0 0
293 2 -1 2.81 5.62 11.24 0 0 0
294 2 -1 0.0 8.43 11.24 0 0 0
295 2 -1 0.0 5.62 14.05 0 0 0
296 2 -1 2.81 8.43 14.05 0 0 0
297 1 1 5.62 5.62 11.24 0 0 0
298 1 1 8.43 5.62 14.05 0 0 0
299 1 1 5.62 8.43 14.05 0 0 0
300 1 1 8.43 8.43 11.24 0 0 0
301 2 -1 8.43 5.62 11.24 0 0 0
302 2 -1 5.62 8.43 11.24 0 0 0
303 2 -1 5.62 5.62 14.05 0 0 0
304 2 -1 8.43 8.43 14.05 0 0 0
305 1 1 11.24 5.62 11.24 0 0 0
306 1 1 14.05 5.62 14.05 0 0 0
307 1 1 11.24 8.43 14.05 0 0 0
308 1 1 14.05 8.43 11.24 0 0 0
309 2 -1 14.05 5.62 11.24 0 0 0
310 2 -1 11.24 8.43 11.24 0 0 0
311 2 -1 11.24 5.62 14.05 0 0 0
312 2 -1 14.05 8.43 14.05 0 0 0
313 1 1 16.86 5.62 11.24 0 0 0
314 1 1 19.67 5.62 14.05 0 0 0
315 1 1 16.86 8.43 14.05 0 0 0
316 1 1 19.67 8.43 11.24 0 0 0
317 2 -1 19.67 5.62 11.24 0 0 0
318 2 -1 16.86 8.43 11.24 0 0 0
319 2 -1 16.86 5.62 14.05 0 0 0
320 2 -1 19.67 8.43 14.05 0 0 0
321 1 1 0.0 11.24 11.24 0 0 0
322 1 1 2.81 11.24 14.05 0 0 0
323 1 1 0.0 14.05 14.05 0 0 0
324 1 1 2.81 14.05 11.24 0 0 0
325 2 -1 2.81 11.24 11.24 0 0 0
326 2 -1 0.0 14.05 11.24 0 0 0
327 2 -1 0.0 11.24 14.05 0 0 0
328 2 -1 2.81 14.05 14.05 0 0 0
329 1 1 5.62 11.24 11.24 0 0 0
330 1 1 8.43 11.24 14.05 0 0 0
331 1 1 5.62 14.05 14.05 0 0 0
332 1 1 8.43 14.05 11.24 0 0 0
333 2 -1 8.43 11.24 11.24 0 0 0
334 2 -1 5.62 14.05 11.24 0 0 0
335 2 -1 5.62 11.24 14.05 0 0 0
336 2 -1 8.43 14.05 14.05 0 0 0
337 1 1 11.24 11.24 11.24 0 0 0
338 1 1 14.05 11.24 14.05 0 0 0
339 1 1 11.24 14.05 14.05 0 0 0
340 1 1 14.05 14.05 11.24 0 0 0
341 2 -1 14.05 11.24 11.24 0 0 0
342 2 -1 11.24 14.05 11.24 0 0 0
343 2 -1 11.24 11.24 14.05 0 0 0
344 2 -1 14.05 14.05 14.05 0 0 0
345 1 1 16.86 11.24 11.24 0 0 0
346 1 1 19.67 11.24 14.05 0 0 0
347 1 1 16.86 14.05 14.05 0 0 0
348 1 1 19.67 14.05 11.24 0 0 0
349 2 -1 19.67 11.24 11.24 0 0 0
350 2 -1 16.86 14.05 11.24 0 0 0
351 2 -1 16.86 11.24 14.05 0 0 0
352 2 -1 19.67 14.05 14.05 0 0 0
353 1 1 0.0 16.86 11.24 0 0 0
354 1 1 2.81 16.86 14.05 0 0 0
355 1 1 0.0 19.67 14.05 0 0 0
356 1 1 2.81 19.67 11.24 0 0 0
357 2 -1 2.81 16.86 11.24 0 0 0
358 2 -1 0.0 19.67 11.24 0 0 0
359 2 -1 0.0 16.86 14.05 0 0 0
360 2 -1 2.81 19.67 14.05 0 0 0
361 1 1 5.62 16.86 11.24 0 0 0
362 1 1 8.43 16.86 14.05 0 0 0
363 1 1 5.62 19.67 14.05 0 0 0
364 1 1 8.43 19.67 11.24 0 0 0
365 2 -1 8.43 16.86 11.24 0 0 0
366 2 -1 5.62 19.67 11.24 0 0 0
367 2 -1 5.62 16.86 14.05 0 0 0
368 2 -1 8.43 19.67 14.05 0 0 0
369 1 1 11.24 16.86 11.24 0 0 0
370 1 1 14.05 16.86 14.05 0 0 0
371 1 1 11.24 19.67 14.05 0 0 0
372 1 1 14.05 19.67 11.24 0 0 0
373 2 -1 14.05 16.86 11.24 0 0 0
374 2 -1 11.24 19.67 11.24 0 0 0
375 2 -1 11.24 16.86 14.05 0 0 0
376 2 -1 14.05 19.67 14.05 0 0 0
377 1 1 16.86 16.86 11.24 0 0 0
378 1 1 19.67 16.86 14.05 0 0 0
379 1 1 16.86 19.67 14.05 0 0 0
380 1 1 19.67 19.67 11.24 0 0 0
381 2 -1 19.67 16.86 11.24 0 0 0
382 2 -1 16.86 19.67 11.24 0 0 0
383 2 -1 16.86 16.86 14.05 0 0 0
384 2 -1 19.67 19.67 14.05 0 0 0
385 1 1 0.0 0.0 16.86 0 0 0
386 1 1 2.81 0.0 19.67 0 0 0
387 1 1 0.0 2.81 19.67 0 0 0
388 1 1 2.81 2.81 16.86 0 0 0
389 2 -1 2.81 0.0 16.86 0 0 0
390 2 -1 0.0 2.81 16.86 0 0 0
391 2 -1 0.0 0.0 19.67 0 0 0
392 2 -1 2.81 2.81 19.67 0 0 0
393 1 1 5.62 0.0 16.86 0 0 0
394 1 1 8.43 0.0 19.67 0 0 0
395 1 1 5.62 2.81 19.67 0 0 0
396 1 1 8.43 2.81 16.86 0 0 0
397 2 -1 8.43 0.0 16.86 0 0 0
398 2 -1 5.62 2.81 16.86 0 0 0
399 2 -1 5.62 0.0 19.67 0 0 0
400 2 -1 8.43 2.81 19.67 0 0 0
401 1 1 11.24 0.0 16.86 0 0 0
402 1 1 14.05 0.0 19.67 0 0 0
403 1 1 11.24 2.81 19.67 0 0 0
404 1 1 14.05 2.81 16.86 0 0 0
405 2 -1 14.05 0.0 16.86 0 0 0
406 2 -1 11.24 2.81 16.86 0 0 0
407 2 -1 11.24 0.0 19.67 0 0 0
408 2 -1 14.05 2.81 19.67 0 0 0
409 1 1 16.86 0.0 16.86 0 0 0
410 1 1 19.67 0.0 19.67 0 0 0
411 1 1 16.86 2.81 19.67 0 0 0
412 1 1 19.67 2.81 16.86 0 0 0
413 2 -1 19.67 0.0 16.86 0 0 0
414 2 -1 16.86 2.81 16.86 0 0 0
415 2 -1 16.86 0.0 19.67 0 0 0
416 2 -1 19.67 2.81 19.67 0 0 0
417 1 1 0.0 5.62 16.86 0 0 0
418 1 1 2.81 5.62 19.67 0 0 0
419 1 1 0.0 8.43 19.67 0 0 0
420 1 1 2.81 8.43 16.86 0 0 0
421 2 -1 2.81 5.62 16.86 0 0 0
422 2 -1 0.0 8.43 16.86 0 0 0
423 2 -1 0.0 5.62 19.67 0 0 0
424 2 -1 2.81 8.43 19.67 0 0 0
425 1 1 5.62 5.62 16.86 0 0 0
426 1 1 8.43 5.62 19.67 0 0 0
427 1 1 5.62 8.43 19.67 0 0 0
428 1 1 8.43 8.43 16.86 0 0 0
429 2 -1 8.43 5.62 16.86 0 0 0
430 2 -1 5.62 8.43 16.86 0 0 0
431 2 -1 5.62 5.62 19.67 0 0 0
432 2 -1 8.43 8.43 19.67 0 0 0
433 1 1 11.24 5.62 16.86 0 0 0
434 1 1 14.05 5.62 19.67 0 0 0
435 1 1 11.24 8.43 19.67 0 0 0
436 1 1 14.05 8.43 16.86 0 0 0
437 2 -1 14.05 5.62 16.86 0 0 0
438 2 -1 11.24 8.43 16.86 0 0 0
439 2 -1 11.24 5.62 19.67 0 0 0
440 2 -1 14.05 8.43 19.67 0 0 0
441 1 1 16.86 5.62 16.86 0 0 0
442 1 1 19.67 5.62 19.67 0 0 0
443 1 1 16.86 8.43 19.67 0 0 0
444 1 1 19.67 8.43 16.86 0 0 0
445 2 -1 19.67 5.62 16.86 0 0 0
446 2 -1 16.86 8.43 16.86 0 0 0
447 2 -1 16.86 5.62 19.67 0 0 0
448 2 -1 19.67 8.43 19.67 0 0 0
449 1 1 0.0 11.24 16.86 0 0 0
450 1 1 2.81 11.24 19.67 0 0 0
451 1 1 0.0 14.05 19.67 0 0 0
452 1 1 2.81 14.05 16.86 0 0 0
453 2 -1 2.81 11.24 16.86 0 0 0
454 2 -1 0.0 14.05 16.86 0 0 0
455 2 -1 0.0 11.24 19.67 0 0 0
456 2 -1 2.81 14.05 19.67 0 0 0
457 1 1 5.62 11.24 16.86 0 0 0
458 1 1 8.43 11.24 19.67 0 0 0
459 1 1 5.62 14.05 19.67 0 0 0
460 1 1 8.43 14.05 16.86 0 0 0
461 2 -1 8.43 11.24 16.86 0 0 0
462 2 -1 5.62 14.05 16.86 0 0 0
463 2 -1 5.62 11.24 19.67 0 0 0
464 2 -1 8.43 14.05 19.67 0 0 0
465 1 1 11.24 11.24 16.86 0 0 0
466 1 1 14.05 11.24 19.67 0 0 0
467 1 1 11.24 14.05 19.67 0 0 0
468 1 1 14.05 14.05 16.86 0 0 0
469 2 -1 14.05 11.24 16.86 0 0 0
470 2 -1 11.24 14.05 16.86 0 0 0
471 2 -1 11.24 11.24 19.67 0 0 0
472 2 -1 14.05 14.05 19.67 0 0 0
473 1 1 16.86 11.24 16.86 0 0 0
474 1 1 19.67 11.24 19.67 0 0 0
475 1 1 16.86 14.05 19.67 0 0 0
476 1 1 19.67 14.05 16.86 0 0 0
477 2 -1 19.67 11.24 16.86 0 0 0
478 2 -1 16.86 14.05 16.86 0 0 0
479 2 -1 16.86 11.24 19.67 0 0 0
480 2 -1 19.67 14.05 19.67 0 0 0
481 1 1 0.0 16.86 16.86 0 0 0
482 1 1 2.81 16.86 19.67 0 0 0
483 1 1 0.0 19.67 19.67 0 0 0
484 1 1 2.81 19.67 16.86 0 0 0
485 2 -1 2.81 16.86 16.86 0 0 0
486 2 -1 0.0 19.67 16.86 0 0 0
487 2 -1 0.0 16.86 19.67 0 0 0
488 2 -1 2.81 19.67 19.67 0 0 0
489 1 1 5.62 16.86 16.86 0 0 0
490 1 1 8.43 16.86 19.67 0 0 0
491 1 1 5.62 19.67 19.67 0 0 0
492 1 1 8.43 19.67 16.86 0 0 0
493 2 -1 8.43 16.86 16.86 0 0 0
494 2 -1 5.62 19.67 16.86 0 0 0
495 2 -1 5.62 16.86 19.67 0 0 0
496 2 -1 8.43 19.67 19.67 0 0 0
497 1 1 11.24 16.86 16.86 0 0 0
498 1 1 14.05 16.86 19.67 0 0 0
499 1 1 11.24 19.67 19.67 0 0 0
500 1 1 14.05 19.67 16.86 0 0 0
501 2 -1 14.05 16.86 16.86 0 0 0
502 2 -1 11.24 19.67 16.86 0 0 0
503 2 -1 11.24 16.86 19.67 0 0 0
504 2 -1 14.05 19.67 19.67 0 0 0
505 1 1 16.86 16.86 16.86 0 0 0
506 1 1 19.67 16.86 19.67 0 0 0
507 1 1 16.86 19.67 19.67 0 0 0
508 1 1 19.67 19.67 16.86 0 0 0
509 2 -1 19.67 16.86 16.86 0 0 0
510 2 -1 16.86 19.67 16.86 0 0 0
511 2 -1 16.86 16.86 19.67 0 0 0
512 2 -1 19.67 19.67 19.67 0 0 0

Velocities

1 0 0 0
2 0 0 0
3 0 0 0
4 0 0 0
5 0 0 0
6 0 0 0
7 0 0 0
8 0 0 0
9 0 0 0
10 0 0 0
11 0 0 0
12 0 0 0
13 0 0 0
14 0 0 0
15 0 0 0
16 0 0 0
17 0 0 0
18 0 0 0
19 0 0 0
20 0 0 0
21 0 0 0
22 0 0 0
23 0 0 0
24 0 0 0
25 0 0 0
26 0 0 0
27 0 0 0
28 0 0 0
29 0 0 0
30 0 0 0
31 0 0 0
32 0 0 0
33 0 0 0
34 0 0 0
35 0 0 0
36 0 0 0
37 0 0 0
38 0 0 0
39 0 0 0
40 0 0 0
41 0 0 0
42 0 0 0
43 0 0 0
44 0 0 0
45 0 0 0
46 0 0 0
47 0 0 0
48 0 0 0
49 0 0 0
50 0 0 0
51 0 0 0
52 0 0 0
53 0 0 0
54 0 0 0
55 0 0 0
56 0 0 0
57 0 0 0
58 0 0 0
59 0 0 0
60 0 0 0
61 0 0 0
62 0 0 0
63 0 0 0
64 0 0 0
65 0 0 0
66 0 0 0
67 0 0 0
68 0 0 0
69 0 0 0
70 0 0 0
71 0 0 0
72 0 0 0
73 0 0 0
74 0 0 0
75 0 0 0
76 0 0 0
77 0 0 0
78 0 0 0
79 0 0 0
80 0 0 0
81 0 0 0
82 0 0 0
83 0 0 0
84 0 0 0
85 0 0 0
86 0 0 0
87 0 0 0
88 0 0 0
89 0 0 0
90 0 0 0
91 0 0 0
92 0 0 0
93 0 0 0
94 0 0 0
95 0 0 0
96 0 0 0
97 0 0 0
98 0 0 0
99 0 0 0
100 0 0 0
101 0 0 0
102 0 0 0
103 0 0 0
104 0 0 0
105 0 0 0
106 0 0 0
107 0 0 0
108 0 0 0
109 0 0 0
110 0 0 0
111 0 0 0
112 0 0 0
113 0 0 0
114 0 0 0
115 0 0 0
116 0 0 0
117 0 0 0
118 0 0 0
119 0 0 0
120 0 0 0
121 0 0 0
122 0 0 0
123 0 0 0
124 0 0 0
125 0 0 0
126 0 0 0
127 0 0 0
128 0 0 0
129 0 0 0
130 0 0 0
131 0 0 0
132 0 0 0
133 0 0 0
134 0 0 0
135 0 0 0
136 0 0 0
137 0 0 0
138 0 0 0
139 0 0 0
140 0 0 0
141 0 0 0
142 0 0 0
143 0 0 0
144 0 0 0
145 0 0 0
146 0 0 0
147 0 0 0
148 0 0 0
149 0 0 0
150 0 0 0
151 0 0 0
152 0 0 0
153 0 0 0
154 0 0 0
155 0 0 0
156 0 0 0
157 0 0 0
158 0 0 0
159 0 0 0
160 0 0 0
161 0 0 0
162 0 0 0
163 0 0 0
164 0 0 0
165 0 0 0
166 0 0 0
167 0 0 0
168 0 0 0
169 0 0 0
170 0 0 0
171 0 0 0
172 0 0 0
173 0 0 0
174 0 0 0
175 0 0 0
176 0 0 0
177 0 0 0
178 0 0 0
179 0 0 0
180 0 0 0
181 0 0 0
182 0 0 0
183 0 0 0
184 0 0 0
185 0 0 0
186 0 0 0
187 0 0 0
188 0 0 0
189 0 0 0
190 0 0 0
191 0 0 0
192 0 0 0
193 0 0 0
194 0 0 0
195 0 0 0
196 0 0 0
197 0 0 0
198 0 0 0
199 0 0 0
200 0 0 0
201 0 0 0
202 0 0 0
203 0 0 0
204 0 0 0
205 0 0 0
206 0 0 0
207 0 0 0
208 0 0 0
209 0 0 0
210 0 0 0
211 0 0 0
212 0 0 0
213 0 0 0
214 0 0 0
215 0 0 0
216 0 0 0
217 0 0 0
218 0 0 0
219 0 0 0
220 0 0 0
221 0 0 0
222 0 0 0
223 0 0 0
224 0 0 0
225 0 0 0
226 0 0 0
227 0 0 0
228 0 0 0
229 0 0 0
230 0 0 0
231 0 0 0
232 0 0 0
233 0 0 0
234 0 0 0
235 0 0 0
236 0 0 0
237 0 0 0
238 0 0 0
239 0 0 0
240 0 0 0
241 0 0 0
242 0 0 0
243 0 0 0
244 0 0 0
245 0 0 0
246 0 0 0
247 0 0 0
248 0 0 0
249 0 0 0
250 0 0 0
251 0 0 0
252 0 0 0
253 0 0 0
254 0 0 0
255 0 0 0
256 0 0 0
257 0 0 0
258 0 0 0
259 0 0 0
260 0 0 0
261 0 0 0
262 0 0 0
263 0 0 0
264 0 0 0
265 0 0 0
266 0 0 0
267 0 0 0
268 0 0 0
269 0 0 0
270 0 0 0
271 0 0 0
272 0 0 0
273 0 0 0
274 0 0 0
275 0 0 0
276 0 0 0
277 0 0 0
278 0 0 0
279 0 0 0
280 0 0 0
281 0 0 0
282 0 0 0
283 0 0 0
284 0 0 0
285 0 0 0
286 0 0 0
287 0 0 0
288 0 0 0
289 0 0 0
290 0 0 0
291 0 0 0
292 0 0 0
293 0 0 0
294 0 0 0
295 0 0 0
296 0 0 0
297 0 0 0
298 0 0 0
299 0 0 0
300 0 0 0
301 0 0 0
302 0 0 0
303 0 0 0
304 0 0 0
305 0 0 0
306 0 0 0
307 0 0 0
308 0 0 0
309 0 0 0
310 0 0 0
311 0 0 0
312 0 0 0
313 0 0 0
314 0 0 0
315 0 0 0
316 0 0 0
317 0 0 0
318 0 0 0
319 0 0 0
320 0 0 0
321 0 0 0
322 0 0 0
323 0 0 0
324 0 0 0
325 0 0 0
326 0 0 0
327 0 0 0
328 0 0 0
329 0 0 0
330 0 0 0
331 0 0 0
332 0 0 0
333 0 0 0
334 0 0 0
335 0 0 0
336 0 0 0
337 0 0 0
338 0 0 0
339 0 0 0
340 0 0 0
341 0 0 0
342 0 0 0
343 0 0 0
344 0 0 0
345 0 0 0
346 0 0 0
347 0 0 0
348 0 0 0
349 0 0 0
350 0 0 0
351 0 0 0
352 0 0 0
353 0 0 0
354 0 0 0
355 0 0 0
356 0 0 0
357 0 0 0
358 0 0 0
359 0 0 0
360 0 0 0
361 0 0 0
362 0 0 0
363 0 0 0
364 0 0 0
365 0 0 0
366 0 0 0
367 0 0 0
368 0 0 0
369 0 0 0
370 0 0 0
371 0 0 0
372 0 0 0
373 0 0 0
374 0 0 0
375 0 0 0
376 0 0 0
377 0 0 0
378 0 0 0
379 0 0 0
380 0 0 0
381 0 0 0
382 0 0 0
383 0 0 0
384 0 0 0
385 0 0 0
386 0 0 0
387 0 0 0
388 0 0 0
389 0 0 0
390 0 0 0
391 0 0 0
392 0 0 0
393 0 0 0
394 0 0 0
395 0 0 0
396 0 0 0
397 0 0 0
398 0 0 0
399 0 0 0
400 0 0 0
401 0 0 0
402 0 0 0
403 0 0 0
404 0 0 0
405 0 0 0
406 0 0 0
407 0 0 0
408 0 0 0
409 0 0 0
410 0 0 0
411 0 0 0
412 0 0 0
413 0 0 0
414 0 0 0
415 0 0 0
416 0 0 0
417 0 0 0
418 0 0 0
419 0 0 0
420 0 0 0
421 0 0 0
422 0 0 0
423 0 0 0
424 0 0 0
425 0 0 0
426 0 0 0
427 0 0 0
428 0 0 0
429 0 0 0
430 0 0 0
431 0 0 0
432 0 0 0
433 0 0 0
434 0 0 0
435 0 0 0
436 0 0 0
437 0 0 0
438 0 0 0
439 0 0 0
440 0 0 0
441 0 0 0
442 0 0 0
443 0 0 0
444 0 0 0
445 0 0 0
446 0 0 0
447 0 0 0
448 0 0 0
449 0 0 0
450 0 0 0
451 0 0 0
452 0 0 0
453 0 0 0
454 0 0 0
455 0 0 0
456 0 0 0
457 0 0 0
458 0 0 0
459 0 0 0
460 0 0 0
461 0 0 0
462 0 0 0
463 0 0 0
464 0 0 0
465 0 0 0
466 0 0 0
467 0 0 0
468 0 0 0
469 0 0 0
470 0 0 0
471 0 0 0
472 0 0 0
473 0 0 0
474 0 0 0
475 0 0 0
476 0 0 0
477 0 0 0
478 0 0 0
479 0 0 0
480 0 0 0
481 0 0 0
482 0 0 0
483 0 0 0
484 0 0 0
485 0 0 0
486 0 0 0
487 0 0 0
488 0 0 0
489 0 0 0
490 0 0 0
491 0 0 0
492 0 0 0
493 0 0 0
494 0 0 0
495 0 0 0
496 0 0 0
497 0 0 0
498 0 0 0
499 0 0 0
500 0 0 0
501 0 0 0
502 0 0 0
503 0 0 0
504 0 0 0
505 0 0 0
506 0 0 0
507 0 0 0
508 0 0 0
509 0 0 0
510 0 0 0
511 0 0 0
512 0 0 0
