ITEM: TIMESTEP
0
ITEM: NUMBER OF ATOMS
216
ITEM: BOX BOUNDS pp pp pp
0.0000000000000000e+00 1.6859999999999999e+01
0.0000000000000000e+00 1.6859999999999999e+01
0.0000000000000000e+00 1.6859999999999999e+01
ITEM: ATOMS id q mass x y z fx fy fz c_1
1 1.0000 22.9897 0.000000000 0.000000000 0.000000000 0.000000000 0.000000000 0.000000000 -92.465477
2 1.0000 22.9897 2.810000000 0.000000000 2.810000000 -0.000000000 0.000000000 -0.000000000 -92.465477
3 1.0000 22.9897 0.000000000 2.810000000 2.810000000 0.000000000 0.000000000 -0.000000000 -92.465477
4 1.0000 22.9897 2.810000000 2.810000000 0.000000000 -0.000000000 0.000000000 0.000000000 -92.465477
5 -1.0000 35.4530 2.810000000 0.000000000 0.000000000 0.000000000 0.000000000 0.000000000 -92.465477
6 -1.0000 35.4530 0.000000000 2.810000000 0.000000000 0.000000000 -0.000000000 0.000000000 -92.465477
7 -1.0000 35.4530 0.000000000 0.000000000 2.810000000 0.000000000 0.000000000 0.000000000 -92.465477
8 -1.0000 35.4530 2.810000000 2.810000000 2.810000000 0.000000000 -0.000000000 0.000000000 -92.465477
9 1.0000 22.9897 5.620000000 0.000000000 0.000000000 -0.000000000 0.000000000 0.000000000 -92.465477
10 1.0000 22.9897 8.430000000 0.000000000 2.810000000 0.000000000 0.000000000 0.000000000 -92.465477
11 1.0000 22.9897 5.620000000 2.810000000 2.810000000 -0.000000000 0.000000000 0.000000000 -92.465477
12 1.0000 22.9897 8.430000000 2.810000000 0.000000000 0.000000000 0.000000000 0.000000000 -92.465477
13 -1.0000 35.4530 8.430000000 0.000000000 0.000000000 0.000000000 0.000000000 0.000000000 -92.465477
14 -1.0000 35.4530 5.620000000 2.810000000 0.000000000 -0.000000000 -0.000000000 0.000000000 -92.465477
15 -1.0000 35.4530 5.620000000 0.000000000 2.810000000 -0.000000000 0.000000000 -0.000000000 -92.465477
16 -1.0000 35.4530 8.430000000 2.810000000 2.810000000 0.000000000 -0.000000000 -0.000000000 -92.465477
17 1.0000 22.9897 11.240000000 0.000000000 0.000000000 0.000000000 0.000000000 0.000000000 -92.465477
18 1.0000 22.9897 14.050000000 0.000000000 2.810000000 -0.000000000 0.000000000 0.000000000 -92.465477
19 1.0000 22.9897 11.240000000 2.810000000 2.810000000 0.000000000 0.000000000 0.000000000 -92.465477
20 1.0000 22.9897 14.050000000 2.810000000 0.000000000 -0.000000000 -0.000000000 0.000000000 -92.465477
21 -1.0000 35.4530 14.050000000 0.000000000 0.000000000 -0.000000000 0.000000000 0.000000000 -92.465477
22 -1.0000 35.4530 11.240000000 2.810000000 0.000000000 -0.000000000 -0.000000000 0.000000000 -92.465477
23 -1.0000 35.4530 11.240000000 0.000000000 2.810000000 -0.000000000 0.000000000 -0.000000000 -92.465477
24 -1.0000 35.4530 14.050000000 2.810000000 2.810000000 -0.000000000 0.000000000 0.000000000 -92.465477
25 1.0000 22.9897 0.000000000 5.620000000 0.000000000 0.000000000 -0.000000000 0.000000000 -92.465477
26 1.0000 22.9897 2.810000000 5.620000000 2.810000000 -0.000000000 -0.000000000 0.000000000 -92.465477
27 1.0000 22.9897 0.000000000 8.430000000 2.810000000 0.000000000 0.000000000 0.000000000 -92.465477
28 1.0000 22.9897 2.810000000 8.430000000 0.000000000 0.000000000 0.000000000 0.000000000 -92.465477
29 -1.0000 35.4530 2.810000000 5.620000000 0.000000000 0.000000000 -0.000000000 0.000000000 -92.465477
30 -1.0000 35.4530 0.000000000 8.430000000 0.000000000 0.000000000 0.000000000 0.000000000 -92.465477
31 -1.0000 35.4530 0.000000000 5.620000000 2.810000000 0.000000000 -0.000000000 -0.000000000 -92.465477
32 -1.0000 35.4530 2.810000000 8.430000000 2.810000000 0.000000000 0.000000000 -0.000000000 -92.465477
33 1.0000 22.9897 5.620000000 5.620000000 0.000000000 -0.000000000 -0.000000000 0.000000000 -92.465477
34 1.0000 22.9897 8.430000000 5.620000000 2.810000000 0.000000000 -0.000000000 0.000000000 -92.465477
35 1.0000 22.9897 5.620000000 8.430000000 2.810000000 -0.000000000 0.000000000 0.000000000 -92.465477
36 1.0000 22.9897 8.430000000 8.430000000 0.000000000 0.000000000 0.000000000 0.000000000 -92.465477
37 -1.0000 35.4530 8.430000000 5.620000000 0.000000000 0.000000000 -0.000000000 0.000000000 -92.465477
38 -1.0000 35.4530 5.620000000 8.430000000 0.000000000 -0.000000000 0.000000000 0.000000000 -92.465477
39 -1.0000 35.4530 5.620000000 5.620000000 2.810000000 -0.000000000 -0.000000000 -0.000000000 -92.465477
40 -1.0000 35.4530 8.430000000 8.430000000 2.810000000 0.000000000 0.000000000 -0.000000000 -92.465477
41 1.0000 22.9897 11.240000000 5.620000000 0.000000000 -0.000000000 -0.000000000 0.000000000 -92.465477
42 1.0000 22.9897 14.050000000 5.620000000 2.810000000 -0.000000000 -0.000000000 0.000000000 -92.465477
43 1.0000 22.9897 11.240000000 8.430000000 2.810000000 0.000000000 0.000000000 0.000000000 -92.465477
44 1.0000 22.9897 14.050000000 8.430000000 0.000000000 -0.000000000 0.000000000 0.000000000 -92.465477
45 -1.0000 35.4530 14.050000000 5.620000000 0.000000000 -0.000000000 -0.000000000 0.000000000 -92.465477
46 -1.0000 35.4530 11.240000000 8.430000000 0.000000000 0.000000000 0.000000000 0.000000000 -92.465477
47 -1.0000 35.4530 11.240000000 5.620000000 2.810000000 0.000000000 -0.000000000 -0.000000000 -92.465477
48 -1.0000 35.4530 14.050000000 8.430000000 2.810000000 -0.000000000 0.000000000 -0.000000000 -92.465477
49 1.0000 22.9897 0.000000000 11.240000000 0.000000000 0.000000000 -0.000000000 0.000000000 -92.465477
50 1.0000 22.9897 2.810000000 11.240000000 2.810000000 -0.000000000 -0.000000000 0.000000000 -92.465477
51 1.0000 22.9897 0.000000000 14.050000000 2.810000000 0.000000000 -0.000000000 -0.000000000 -92.465477
52 1.0000 22.9897 2.810000000 14.050000000 0.000000000 -0.000000000 -0.000000000 0.000000000 -92.465477
53 -1.0000 35.4530 2.810000000 11.240000000 0.000000000 0.000000000 0.000000000 0.000000000 -92.465477
54 -1.0000 35.4530 0.000000000 14.050000000 0.000000000 0.000000000 -0.000000000 0.000000000 -92.465477
55 -1.0000 35.4530 0.000000000 11.240000000 2.810000000 0.000000000 0.000000000 -0.000000000 -92.465477
56 -1.0000 35.4530 2.810000000 14.050000000 2.810000000 0.000000000 -0.000000000 -0.000000000 -92.465477
57 1.0000 22.9897 5.620000000 11.240000000 0.000000000 -0.000000000 -0.000000000 0.000000000 -92.465477
58 1.0000 22.9897 8.430000000 11.240000000 2.810000000 0.000000000 -0.000000000 0.000000000 -92.465477
59 1.0000 22.9897 5.620000000 14.050000000 2.810000000 -0.000000000 -0.000000000 0.000000000 -92.465477
60 1.0000 22.9897 8.430000000 14.050000000 0.000000000 0.000000000 -0.000000000 0.000000000 -92.465477
61 -1.0000 35.4530 8.430000000 11.240000000 0.000000000 0.000000000 0.000000000 0.000000000 -92.465477
62 -1.0000 35.4530 5.620000000 14.050000000 0.000000000 -0.000000000 -0.000000000 0.000000000 -92.465477
63 -1.0000 35.4530 5.620000000 11.240000000 2.810000000 -0.000000000 0.000000000 -0.000000000 -92.465477
64 -1.0000 35.4530 8.430000000 14.050000000 2.810000000 0.000000000 -0.000000000 -0.000000000 -92.465477
65 1.0000 22.9897 11.240000000 11.240000000 0.000000000 0.000000000 0.000000000 0.000000000 -92.465477
66 1.0000 22.9897 14.050000000 11.240000000 2.810000000 -0.000000000 0.000000000 0.000000000 -92.465477
67 1.0000 22.9897 11.240000000 14.050000000 2.810000000 0.000000000 -0.000000000 0.000000000 -92.465477
68 1.0000 22.9897 14.050000000 14.050000000 0.000000000 -0.000000000 -0.000000000 0.000000000 -92.465477
69 -1.0000 35.4530 14.050000000 11.240000000 0.000000000 -0.000000000 -0.000000000 0.000000000 -92.465477
70 -1.0000 35.4530 11.240000000 14.050000000 0.000000000 -0.000000000 -0.000000000 0.000000000 -92.465477
71 -1.0000 35.4530 11.240000000 11.240000000 2.810000000 -0.000000000 -0.000000000 -0.000000000 -92.465477
72 -1.0000 35.4530 14.050000000 14.050000000 2.810000000 -0.000000000 -0.000000000 0.000000000 -92.465477
73 1.0000 22.9897 0.000000000 0.000000000 5.620000000 0.000000000 0.000000000 -0.000000000 -92.465477
74 1.0000 22.9897 2.810000000 0.000000000 8.430000000 0.000000000 0.000000000 0.000000000 -92.465477
75 1.0000 22.9897 0.000000000 2.810000000 8.430000000 0.000000000 0.000000000 0.000000000 -92.465477
76 1.0000 22.9897 2.810000000 2.810000000 5.620000000 -0.000000000 0.000000000 -0.000000000 -92.465477
77 -1.0000 35.4530 2.810000000 0.000000000 5.620000000 0.000000000 0.000000000 -0.000000000 -92.465477
78 -1.0000 35.4530 0.000000000 2.810000000 5.620000000 0.000000000 -0.000000000 -0.000000000 -92.465477
79 -1.0000 35.4530 0.000000000 0.000000000 8.430000000 0.000000000 0.000000000 0.000000000 -92.465477
80 -1.0000 35.4530 2.810000000 2.810000000 8.430000000 -0.000000000 -0.000000000 0.000000000 -92.465477
81 1.0000 22.9897 5.620000000 0.000000000 5.620000000 -0.000000000 0.000000000 -0.000000000 -92.465477
82 1.0000 22.9897 8.430000000 0.000000000 8.430000000 0.000000000 0.000000000 0.000000000 -92.465477
83 1.0000 22.9897 5.620000000 2.810000000 8.430000000 -0.000000000 0.000000000 0.000000000 -92.465477
84 1.0000 22.9897 8.430000000 2.810000000 5.620000000 0.000000000 0.000000000 -0.000000000 -92.465477
85 -1.0000 35.4530 8.430000000 0.000000000 5.620000000 0.000000000 0.000000000 -0.000000000 -92.465477
86 -1.0000 35.4530 5.620000000 2.810000000 5.620000000 -0.000000000 -0.000000000 -0.000000000 -92.465477
87 -1.0000 35.4530 5.620000000 0.000000000 8.430000000 -0.000000000 0.000000000 0.000000000 -92.465477
88 -1.0000 35.4530 8.430000000 2.810000000 8.430000000 0.000000000 -0.000000000 0.000000000 -92.465477
89 1.0000 22.9897 11.240000000 0.000000000 5.620000000 -0.000000000 0.000000000 -0.000000000 -92.465477
90 1.0000 22.9897 14.050000000 0.000000000 8.430000000 -0.000000000 0.000000000 0.000000000 -92.465477
91 1.0000 22.9897 11.240000000 2.810000000 8.430000000 -0.000000000 0.000000000 0.000000000 -92.465477
92 1.0000 22.9897 14.050000000 2.810000000 5.620000000 -0.000000000 0.000000000 -0.000000000 -92.465477
93 -1.0000 35.4530 14.050000000 0.000000000 5.620000000 -0.000000000 0.000000000 -0.000000000 -92.465477
94 -1.0000 35.4530 11.240000000 2.810000000 5.620000000 0.000000000 -0.000000000 -0.000000000 -92.465477
95 -1.0000 35.4530 11.240000000 0.000000000 8.430000000 0.000000000 0.000000000 0.000000000 -92.465477
96 -1.0000 35.4530 14.050000000 2.810000000 8.430000000 -0.000000000 -0.000000000 0.000000000 -92.465477
97 1.0000 22.9897 0.000000000 5.620000000 5.620000000 0.000000000 -0.000000000 -0.000000000 -92.465477
98 1.0000 22.9897 2.810000000 5.620000000 8.430000000 0.000000000 -0.000000000 0.000000000 -92.465477
99 1.0000 22.9897 0.000000000 8.430000000 8.430000000 0.000000000 0.000000000 0.000000000 -92.465477
100 1.0000 22.9897 2.810000000 8.430000000 5.620000000 0.000000000 0.000000000 -0.000000000 -92.465477
101 -1.0000 35.4530 2.810000000 5.620000000 5.620000000 0.000000000 -0.000000000 -0.000000000 -92.465477
102 -1.0000 35.4530 0.000000000 8.430000000 5.620000000 0.000000000 0.000000000 -0.000000000 -92.465477
103 -1.0000 35.4530 0.000000000 5.620000000 8.430000000 0.000000000 -0.000000000 0.000000000 -92.465477
104 -1.0000 35.4530 2.810000000 8.430000000 8.430000000 -0.000000000 0.000000000 0.000000000 -92.465477
105 1.0000 22.9897 5.620000000 5.620000000 5.620000000 -0.000000000 -0.000000000 -0.000000000 -92.465477
106 1.0000 22.9897 8.430000000 5.620000000 8.430000000 0.000000000 -0.000000000 0.000000000 -92.465477
107 1.0000 22.9897 5.620000000 8.430000000 8.430000000 -0.000000000 0.000000000 0.000000000 -92.465477
108 1.0000 22.9897 8.430000000 8.430000000 5.620000000 0.000000000 0.000000000 -0.000000000 -92.465477
109 -1.0000 35.4530 8.430000000 5.620000000 5.620000000 0.000000000 -0.000000000 -0.000000000 -92.465477
110 -1.0000 35.4530 5.620000000 8.430000000 5.620000000 -0.000000000 0.000000000 -0.000000000 -92.465477
111 -1.0000 35.4530 5.620000000 5.620000000 8.430000000 -0.000000000 -0.000000000 0.000000000 -92.465477
112 -1.0000 35.4530 8.430000000 8.430000000 8.430000000 0.000000000 0.000000000 0.000000000 -92.465477
113 1.0000 22.9897 11.240000000 5.620000000 5.620000000 -0.000000000 -0.000000000 -0.000000000 -92.465477
114 1.0000 22.9897 14.050000000 5.620000000 8.430000000 -0.000000000 -0.000000000 0.000000000 -92.465477
115 1.0000 22.9897 11.240000000 8.430000000 8.430000000 0.000000000 0.000000000 0.000000000 -92.465477
116 1.0000 22.9897 14.050000000 8.430000000 5.620000000 -0.000000000 0.000000000 -0.000000000 -92.465477
117 -1.0000 35.4530 14.050000000 5.620000000 5.620000000 -0.000000000 -0.000000000 -0.000000000 -92.465477
118 -1.0000 35.4530 11.240000000 8.430000000 5.620000000 -0.000000000 0.000000000 -0.000000000 -92.465477
119 -1.0000 35.4530 11.240000000 5.620000000 8.430000000 -0.000000000 -0.000000000 0.000000000 -92.465477
120 -1.0000 35.4530 14.050000000 8.430000000 8.430000000 -0.000000000 0.000000000 0.000000000 -92.465477
121 1.0000 22.9897 0.000000000 11.240000000 5.620000000 0.000000000 -0.000000000 -0.000000000 -92.465477
122 1.0000 22.9897 2.810000000 11.240000000 8.430000000 0.000000000 -0.000000000 0.000000000 -92.465477
123 1.0000 22.9897 0.000000000 14.050000000 8.430000000 0.000000000 -0.000000000 0.000000000 -92.465477
124 1.0000 22.9897 2.810000000 14.050000000 5.620000000 -0.000000000 -0.000000000 -0.000000000 -92.465477
125 -1.0000 35.4530 2.810000000 11.240000000 5.620000000 0.000000000 0.000000000 -0.000000000 -92.465477
126 -1.0000 35.4530 0.000000000 14.050000000 5.620000000 0.000000000 -0.000000000 -0.000000000 -92.465477
127 -1.0000 35.4530 0.000000000 11.240000000 8.430000000 0.000000000 0.000000000 0.000000000 -92.465477
128 -1.0000 35.4530 2.810000000 14.050000000 8.430000000 -0.000000000 -0.000000000 0.000000000 -92.465477
129 1.0000 22.9897 5.620000000 11.240000000 5.620000000 -0.000000000 -0.000000000 -0.000000000 -92.465477
130 1.0000 22.9897 8.430000000 11.240000000 8.430000000 0.000000000 0.000000000 0.000000000 -92.465477
131 1.0000 22.9897 5.620000000 14.050000000 8.430000000 -0.000000000 -0.000000000 0.000000000 -92.465477
132 1.0000 22.9897 8.430000000 14.050000000 5.620000000 0.000000000 -0.000000000 -0.000000000 -92.465477
133 -1.0000 35.4530 8.430000000 11.240000000 5.620000000 0.000000000 0.000000000 -0.000000000 -92.465477
134 -1.0000 35.4530 5.620000000 14.050000000 5.620000000 -0.000000000 -0.000000000 -0.000000000 -92.465477
135 -1.0000 35.4530 5.620000000 11.240000000 8.430000000 -0.000000000 0.000000000 0.000000000 -92.465477
136 -1.0000 35.4530 8.430000000 14.050000000 8.430000000 0.000000000 -0.000000000 0.000000000 -92.465477
137 1.0000 22.9897 11.240000000 11.240000000 5.620000000 0.000000000 -0.000000000 -0.000000000 -92.465477
138 1.0000 22.9897 14.050000000 11.240000000 8.430000000 -0.000000000 -0.000000000 0.000000000 -92.465477
139 1.0000 22.9897 11.240000000 14.050000000 8.430000000 0.000000000 -0.000000000 0.000000000 -92.465477
140 1.0000 22.9897 14.050000000 14.050000000 5.620000000 -0.000000000 -0.000000000 -0.000000000 -92.465477
141 -1.0000 35.4530 14.050000000 11.240000000 5.620000000 -0.000000000 0.000000000 -0.000000000 -92.465477
142 -1.0000 35.4530 11.240000000 14.050000000 5.620000000 0.000000000 -0.000000000 -0.000000000 -92.465477
143 -1.0000 35.4530 11.240000000 11.240000000 8.430000000 0.000000000 0.000000000 0.000000000 -92.465477
144 -1.0000 35.4530 14.050000000 14.050000000 8.430000000 -0.000000000 -0.000000000 0.000000000 -92.465477
145 1.0000 22.9897 0.000000000 0.000000000 11.240000000 0.000000000 0.000000000 0.000000000 -92.465477
146 1.0000 22.9897 2.810000000 0.000000000 14.050000000 -0.000000000 0.000000000 -0.000000000 -92.465477
147 1.0000 22.9897 0.000000000 2.810000000 14.050000000 0.000000000 -0.000000000 -0.000000000 -92.465477
148 1.0000 22.9897 2.810000000 2.810000000 11.240000000 0.000000000 0.000000000 0.000000000 -92.465477
149 -1.0000 35.4530 2.810000000 0.000000000 11.240000000 -0.000000000 0.000000000 0.000000000 -92.465477
150 -1.0000 35.4530 0.000000000 2.810000000 11.240000000 0.000000000 -0.000000000 0.000000000 -92.465477
151 -1.0000 35.4530 0.000000000 0.000000000 14.050000000 0.000000000 0.000000000 -0.000000000 -92.465477
152 -1.0000 35.4530 2.810000000 2.810000000 14.050000000 -0.000000000 -0.000000000 -0.000000000 -92.465477
153 1.0000 22.9897 5.620000000 0.000000000 11.240000000 -0.000000000 0.000000000 -0.000000000 -92.465477
154 1.0000 22.9897 8.430000000 0.000000000 14.050000000 0.000000000 0.000000000 -0.000000000 -92.465477
155 1.0000 22.9897 5.620000000 2.810000000 14.050000000 -0.000000000 0.000000000 -0.000000000 -92.465477
156 1.0000 22.9897 8.430000000 2.810000000 11.240000000 0.000000000 0.000000000 -0.000000000 -92.465477
157 -1.0000 35.4530 8.430000000 0.000000000 11.240000000 0.000000000 0.000000000 0.000000000 -92.465477
158 -1.0000 35.4530 5.620000000 2.810000000 11.240000000 -0.000000000 -0.000000000 0.000000000 -92.465477
159 -1.0000 35.4530 5.620000000 0.000000000 14.050000000 -0.000000000 0.000000000 -0.000000000 -92.465477
160 -1.0000 35.4530 8.430000000 2.810000000 14.050000000 0.000000000 -0.000000000 -0.000000000 -92.465477
161 1.0000 22.9897 11.240000000 0.000000000 11.240000000 0.000000000 0.000000000 -0.000000000 -92.465477
162 1.0000 22.9897 14.050000000 0.000000000 14.050000000 -0.000000000 0.000000000 -0.000000000 -92.465477
163 1.0000 22.9897 11.240000000 2.810000000 14.050000000 -0.000000000 0.000000000 -0.000000000 -92.465477
164 1.0000 22.9897 14.050000000 2.810000000 11.240000000 -0.000000000 0.000000000 0.000000000 -92.465477
165 -1.0000 35.4530 14.050000000 0.000000000 11.240000000 -0.000000000 0.000000000 -0.000000000 -92.465477
166 -1.0000 35.4530 11.240000000 2.810000000 11.240000000 0.000000000 -0.000000000 0.000000000 -92.465477
167 -1.0000 35.4530 11.240000000 0.000000000 14.050000000 -0.000000000 0.000000000 -0.000000000 -92.465477
168 -1.0000 35.4530 14.050000000 2.810000000 14.050000000 -0.000000000 0.000000000 -0.000000000 -92.465477
169 1.0000 22.9897 0.000000000 5.620000000 11.240000000 0.000000000 -0.000000000 -0.000000000 -92.465477
170 1.0000 22.9897 2.810000000 5.620000000 14.050000000 0.000000000 -0.000000000 -0.000000000 -92.465477
171 1.0000 22.9897 0.000000000 8.430000000 14.050000000 0.000000000 0.000000000 -0.000000000 -92.465477
172 1.0000 22.9897 2.810000000 8.430000000 11.240000000 0.000000000 0.000000000 -0.000000000 -92.465477
173 -1.0000 35.4530 2.810000000 5.620000000 11.240000000 -0.000000000 -0.000000000 0.000000000 -92.465477
174 -1.0000 35.4530 0.000000000 8.430000000 11.240000000 0.000000000 0.000000000 0.000000000 -92.465477
175 -1.0000 35.4530 0.000000000 5.620000000 14.050000000 0.000000000 -0.000000000 -0.000000000 -92.465477
176 -1.0000 35.4530 2.810000000 8.430000000 14.050000000 0.000000000 0.000000000 -0.000000000 -92.465477
177 1.0000 22.9897 5.620000000 5.620000000 11.240000000 -0.000000000 -0.000000000 -0.000000000 -92.465477
178 1.0000 22.9897 8.430000000 5.620000000 14.050000000 0.000000000 -0.000000000 -0.000000000 -92.465477
179 1.0000 22.9897 5.620000000 8.430000000 14.050000000 -0.000000000 0.000000000 -0.000000000 -92.465477
180 1.0000 22.9897 8.430000000 8.430000000 11.240000000 0.000000000 0.000000000 0.000000000 -92.465477
181 -1.0000 35.4530 8.430000000 5.620000000 11.240000000 0.000000000 -0.000000000 0.000000000 -92.465477
182 -1.0000 35.4530 5.620000000 8.430000000 11.240000000 -0.000000000 0.000000000 -0.000000000 -92.465477
183 -1.0000 35.4530 5.620000000 5.620000000 14.050000000 -0.000000000 -0.000000000 -0.000000000 -92.465477
184 -1.0000 35.4530 8.430000000 8.430000000 14.050000000 0.000000000 0.000000000 -0.000000000 -92.465477
185 1.0000 22.9897 11.240000000 5.620000000 11.240000000 -0.000000000 -0.000000000 0.000000000 -92.465477
186 1.0000 22.9897 14.050000000 5.620000000 14.050000000 -0.000000000 -0.000000000 -0.000000000 -92.465477
187 1.0000 22.9897 11.240000000 8.430000000 14.050000000 -0.000000000 0.000000000 -0.000000000 -92.465477
188 1.0000 22.9897 14.050000000 8.430000000 11.240000000 -0.000000000 0.000000000 -0.000000000 -92.465477
189 -1.0000 35.4530 14.050000000 5.620000000 11.240000000 -0.000000000 -0.000000000 0.000000000 -92.465477
190 -1.0000 35.4530 11.240000000 8.430000000 11.240000000 -0.000000000 0.000000000 0.000000000 -92.465477
191 -1.0000 35.4530 11.240000000 5.620000000 14.050000000 0.000000000 -0.000000000 -0.000000000 -92.465477
192 -1.0000 35.4530 14.050000000 8.430000000 14.050000000 -0.000000000 0.000000000 -0.000000000 -92.465477
193 1.0000 22.9897 0.000000000 11.240000000 11.240000000 0.000000000 -0.000000000 0.000000000 -92.465477
194 1.0000 22.9897 2.810000000 11.240000000 14.050000000 -0.000000000 -0.000000000 -0.000000000 -92.465477
195 1.0000 22.9897 0.000000000 14.050000000 14.050000000 0.000000000 -0.000000000 -0.000000000 -92.465477
196 1.0000 22.9897 2.810000000 14.050000000 11.240000000 -0.000000000 -0.000000000 -0.000000000 -92.465477
197 -1.0000 35.4530 2.810000000 11.240000000 11.240000000 0.000000000 0.000000000 0.000000000 -92.465477
198 -1.0000 35.4530 0.000000000 14.050000000 11.240000000 0.000000000 -0.000000000 -0.000000000 -92.465477
199 -1.0000 35.4530 0.000000000 11.240000000 14.050000000 0.000000000 0.000000000 -0.000000000 -92.465477
200 -1.0000 35.4530 2.810000000 14.050000000 14.050000000 0.000000000 -0.000000000 -0.000000000 -92.465477
201 1.0000 22.9897 5.620000000 11.240000000 11.240000000 -0.000000000 -0.000000000 0.000000000 -92.465477
202 1.0000 22.9897 8.430000000 11.240000000 14.050000000 0.000000000 -0.000000000 -0.000000000 -92.465477
203 1.0000 22.9897 5.620000000 14.050000000 14.050000000 -0.000000000 -0.000000000 -0.000000000 -92.465477
204 1.0000 22.9897 8.430000000 14.050000000 11.240000000 0.000000000 -0.000000000 -0.000000000 -92.465477
205 -1.0000 35.4530 8.430000000 11.240000000 11.240000000 0.000000000 0.000000000 0.000000000 -92.465477
206 -1.0000 35.4530 5.620000000 14.050000000 11.240000000 -0.000000000 -0.000000000 0.000000000 -92.465477
207 -1.0000 35.4530 5.620000000 11.240000000 14.050000000 -0.000000000 0.000000000 -0.000000000 -92.465477
208 -1.0000 35.4530 8.430000000 14.050000000 14.050000000 0.000000000 -0.000000000 -0.000000000 -92.465477
209 1.0000 22.9897 11.240000000 11.240000000 11.240000000 0.000000000 -0.000000000 -0.000000000 -92.465477
210 1.0000 22.9897 14.050000000 11.240000000 14.050000000 -0.000000000 -0.000000000 -0.000000000 -92.465477
211 1.0000 22.9897 11.240000000 14.050000000 14.050000000 0.000000000 -0.000000000 -0.000000000 -92.465477
212 1.0000 22.9897 14.050000000 14.050000000 11.240000000 -0.000000000 -0.000000000 0.000000000 -92.465477
213 -1.0000 35.4530 14.050000000 11.240000000 11.240000000 -0.000000000 0.000000000 0.000000000 -92.465477
214 -1.0000 35.4530 11.240000000 14.050000000 11.240000000 0.000000000 -0.000000000 0.000000000 -92.465477
215 -1.0000 35.4530 11.240000000 11.240000000 14.050000000 -0.000000000 0.000000000 -0.000000000 -92.465477
216 -1.0000 35.4530 14.050000000 14.050000000 14.050000000 -0.000000000 -0.000000000 -0.000000000 -92.465477
ITEM: TIMESTEP
10000
ITEM: NUMBER OF ATOMS
216
ITEM: BOX BOUNDS pp pp pp
0.0000000000000000e+00 1.6859999999999999e+01
0.0000000000000000e+00 1.6859999999999999e+01
0.0000000000000000e+00 1.6859999999999999e+01
ITEM: ATOMS id q mass x y z fx fy fz c_1
1 1.0000 22.9897 -0.036352467 -0.031226680 0.123886527 -8.076983972 5.096005485 -5.449661980 -89.862523
2 1.0000 22.9897 2.642580271 -0.128430912 2.835905583 5.755065594 -3.865580348 5.223043293 -92.062666
3 1.0000 22.9897 -0.067225986 2.690059048 3.005832495 9.647493869 9.985284391 1.593705958 -91.849294
4 1.0000 22.9897 2.761523270 2.818032974 0.136082986 -3.043613743 -2.716463146 3.827631205 -93.320612
5 -1.0000 35.4530 2.737580791 -0.041990655 0.047581787 1.045312215 -2.069014166 14.925300454 -92.204583
6 -1.0000 35.4530 -0.138203562 2.813810897 0.176887206 6.441984800 -4.924802642 3.854517853 -91.991396
7 -1.0000 35.4530 -0.150200536 -0.046457652 2.882488285 -1.000394810 -5.071497092 0.729197667 -94.313473
8 -1.0000 35.4530 2.775561404 2.635203029 2.956609940 -3.144781505 9.022604327 -7.766201644 -91.544901
9 1.0000 22.9897 5.563316625 -0.045103562 -0.054479223 -1.973703495 3.763071263 2.558274601 -92.337413
10 1.0000 22.9897 8.436859893 0.002681946 2.726428655 -23.432867533 -2.304504877 1.273686882 -89.755966
11 1.0000 22.9897 5.603066637 2.624066163 2.888113937 -0.756559078 9.731375919 -23.843237809 -92.324742
12 1.0000 22.9897 8.344486812 2.831512526 -0.018986511 0.015956708 -4.451684755 -6.229888274 -92.761280
13 -1.0000 35.4530 8.377244061 -0.013546385 -0.124471269 -1.529718769 10.025250481 2.545042986 -92.565198
14 -1.0000 35.4530 5.582169022 2.797736470 -0.015668301 -4.327641666 -0.910009741 5.735614347 -91.230192
15 -1.0000 35.4530 5.439155557 -0.072637462 2.717276865 12.041739704 -8.633140377 5.584367747 -91.014721
16 -1.0000 35.4530 8.427455945 2.803772638 2.770755591 -6.150717604 -5.186549800 3.949866143 -93.048073
17 1.0000 22.9897 11.190436006 -0.112947120 -0.025727556 -6.015486977 -1.584912979 1.429248966 -91.607911
18 1.0000 22.9897 13.887894662 0.006399138 2.895700734 4.113170078 -5.443968822 -7.844845836 -89.574907
19 1.0000 22.9897 11.167316612 2.740348357 2.782801623 9.194060056 5.347121581 4.911129532 -88.829436
20 1.0000 22.9897 13.925750251 2.846445024 0.152479291 0.437323819 2.331878334 -17.638025187 -89.576710
21 -1.0000 35.4530 13.940853974 0.103734702 0.036779323 8.287740432 -6.607757084 5.501807970 -93.856369
22 -1.0000 35.4530 11.112203030 2.681048179 0.006021347 6.628373596 6.516127346 -0.117552001 -93.811839
23 -1.0000 35.4530 11.103576462 -0.067739780 2.804658938 17.455515578 0.032224153 3.117146176 -93.728903
24 -1.0000 35.4530 14.054174667 2.793138643 2.869808645 -12.863432753 -3.710131631 3.623454973 -93.910554
25 1.0000 22.9897 -0.124328337 5.614189951 0.156891905 12.213919190 -1.743671856 -4.538221017 -92.888012
26 1.0000 22.9897 2.891429825 5.514890536 2.893273226 -12.782064720 -3.079272449 -5.061377529 -91.402467
27 1.0000 22.9897 0.118296589 8.331052415 2.816479917 -6.120022141 5.612336567 -2.146497303 -92.707759
28 1.0000 22.9897 2.795479870 8.369954152 0.045471829 3.003220067 8.662492489 -1.231868799 -91.374682
29 -1.0000 35.4530 2.748931329 5.613398305 -0.018322846 -2.858480913 -2.437669970 10.041904950 -92.070289
30 -1.0000 35.4530 0.050078578 8.402547262 -0.021264047 -6.854152209 4.882714411 5.934652420 -91.835821
31 -1.0000 35.4530 0.027789206 5.526753822 2.958529407 1.344356464 -1.127251776 -6.177681012 -92.791436
32 -1.0000 35.4530 2.916034968 8.346087401 2.863701157 -3.074929930 -8.429645995 -0.724582248 -92.492603
33 1.0000 22.9897 5.550221966 5.622658342 -0.174600086 5.808654234 -7.228749471 10.242017714 -90.894551
34 1.0000 22.9897 8.399293241 5.578190730 2.771973155 2.284329784 0.020018293 -6.753306752 -91.704401
35 1.0000 22.9897 5.682229145 8.248981066 2.740427090 0.686126614 5.713161549 8.175975975 -91.657693
36 1.0000 22.9897 8.469737943 8.459672334 -0.051320173 -0.958912025 -10.635340324 1.517926658 -92.623070
37 -1.0000 35.4530 8.455166227 5.615440653 -0.035924916 -9.995437966 4.604724249 -4.602433298 -91.979018
38 -1.0000 35.4530 5.597296815 8.381585978 0.023707393 3.903818565 3.716784762 -7.339304741 -94.137643
39 -1.0000 35.4530 5.598955307 5.397224968 2.700701656 8.588657418 9.221976112 0.708331291 -91.924200
40 -1.0000 35.4530 8.458950249 8.377236309 2.803054091 1.796886029 6.076470843 -15.222312526 -93.112973
41 1.0000 22.9897 11.230979489 5.549504174 -0.027501765 -3.161972958 2.017188082 1.483914324 -91.546706
42 1.0000 22.9897 14.031651632 5.536753440 2.818815665 5.998916267 13.739085757 10.071965398 -90.908760
43 1.0000 22.9897 11.247449571 8.354035588 2.804866892 7.193707533 14.556678456 -4.401909932 -91.212513
44 1.0000 22.9897 14.097956467 8.475464934 0.009323587 0.580656096 -2.450242134 3.638663105 -92.362628
45 -1.0000 35.4530 14.001207947 5.627189845 0.054477090 -5.373563902 3.354003219 -4.507940353 -93.230663
46 -1.0000 35.4530 11.298297683 8.405014766 -0.016928133 -1.763705536 -8.720170787 4.068573574 -91.476878
47 -1.0000 35.4530 11.246278230 5.646027703 2.771387468 -2.949530760 -18.188919132 -4.242506570 -92.799093
48 -1.0000 35.4530 14.107485227 8.421420343 2.855713892 0.382981162 -0.565396273 -8.168282792 -91.660440
49 1.0000 22.9897 -0.041156768 11.298174288 -0.070709266 7.674911413 -12.678865606 16.102632579 -90.778271
50 1.0000 22.9897 2.903040013 11.094192990 2.877621690 -1.009754819 5.775693888 -0.647748679 -93.934167
51 1.0000 22.9897 -0.023285847 14.043890908 2.850397702 0.642243824 -8.981209932 -12.195249385 -89.659547
52 1.0000 22.9897 2.714486139 13.926791746 0.025841761 3.442150438 13.863987077 0.731865440 -91.549037
53 -1.0000 35.4530 2.714368957 11.213514924 0.072054052 10.809447221 -11.819934138 -4.018680291 -91.109977
54 -1.0000 35.4530 -0.101981701 14.042934775 -0.054028882 9.487919803 4.756789578 3.016908002 -94.360600
55 -1.0000 35.4530 0.096597395 11.187449476 2.846791583 -2.096491978 1.647679027 -2.950387887 -91.241492
56 -1.0000 35.4530 2.827269298 13.896950031 2.840971577 -3.044314109 4.620790111 -7.118551667 -92.010299
57 1.0000 22.9897 5.638993636 11.200381663 -0.084830876 -2.985865627 1.307378376 5.532459090 -92.643732
58 1.0000 22.9897 8.509781228 11.276428829 2.864625563 -5.600238285 -6.709646751 -13.916015294 -90.924675
59 1.0000 22.9897 5.682553421 13.996889613 2.703864682 -5.035934016 -2.522833342 -1.899367481 -93.450032
60 1.0000 22.9897 8.374725935 14.130113393 -0.148879086 -1.462865570 -19.349679592 7.065401177 -92.010357
61 -1.0000 35.4530 8.487179665 11.181859966 -0.086051039 -1.487009789 13.733574303 6.908001143 -89.773537
62 -1.0000 35.4530 5.518706570 14.003212961 -0.068217989 5.715036321 1.654074632 3.263375178 -91.394304
63 -1.0000 35.4530 5.706222036 11.156537222 2.705378248 0.139916780 -1.591405449 6.599879219 -90.822572
64 -1.0000 35.4530 8.497062237 14.064084522 2.684043485 -2.577269591 -0.473196719 3.984401480 -92.425155
65 1.0000 22.9897 11.355423052 11.145575408 -0.042487261 -10.411971284 6.111926161 -0.353500511 -93.837398
66 1.0000 22.9897 14.154560225 11.286673934 2.819294767 -3.148468209 -16.219222219 -3.089996542 -92.202305