ITEM: TIMESTEP
0
ITEM: NUMBER OF ATOMS
216
ITEM: BOX BOUNDS pp pp pp
0.0000000000000000e+00 1.6859999999999999e+01
0.0000000000000000e+00 1.6859999999999999e+01
0.0000000000000000e+00 1.6859999999999999e+01
ITEM: ATOMS id q mass x y z fx fy fz c_1
1 1.0000 22.9897 0.000000000 0.000000000 0.000000000 0.000000000 0.000000000 0.000000000 -92.465477
2 1.0000 22.9897 2.810000000 0.000000000 2.810000000 -0.000000000 0.000000000 -0.000000000 -92.465477
3 1.0000 22.9897 0.000000000 2.810000000 2.810000000 0.000000000 0.000000000 -0.000000000 -92.465477
4 1.0000 22.9897 2.810000000 2.810000000 0.000000000 -0.000000000 0.000000000 0.000000000 -92.465477
5 -1.0000 35.4530 2.810000000 0.000000000 0.000000000 0.000000000 0.000000000 0.000000000 -92.465477
6 -1.0000 35.4530 0.000000000 2.810000000 0.000000000 0.000000000 -0.000000000 0.000000000 -92.465477
7 -1.0000 35.4530 0.000000000 0.000000000 2.810000000 0.000000000 0.000000000 0.000000000 -92.465477
8 -1.0000 35.4530 2.810000000 2.810000000 2.810000000 0.000000000 -0.000000000 0.000000000 -92.465477
9 1.0000 22.9897 5.620000000 0.000000000 0.000000000 -0.000000000 0.000000000 0.000000000 -92.465477
10 1.0000 22.9897 8.430000000 0.000000000 2.810000000 0.000000000 0.000000000 0.000000000 -92.465477
11 1.0000 22.9897 5.620000000 2.810000000 2.810000000 -0.000000000 0.000000000 0.000000000 -92.465477
12 1.0000 22.9897 8.430000000 2.810000000 0.000000000 0.000000000 0.000000000 0.000000000 -92.465477
13 -1.0000 35.4530 8.430000000 0.000000000 0.000000000 0.000000000 0.000000000 0.000000000 -92.465477
14 -1.0000 35.4530 5.620000000 2.810000000 0.000000000 -0.000000000 -0.000000000 0.000000000 -92.465477
15 -1.0000 35.4530 5.620000000 0.000000000 2.810000000 -0.000000000 0.000000000 -0.000000000 -92.465477
16 -1.0000 35.4530 8.430000000 2.810000000 2.810000000 0.000000000 -0.000000000 -0.000000000 -92.465477
17 1.0000 22.9897 11.240000000 0.000000000 0.000000000 0.000000000 0.000000000 0.000000000 -92.465477
18 1.0000 22.9897 14.050000000 0.000000000 2.810000000 -0.000000000 0.000000000 -0.000000000 -92.465477
19 1.0000 22.9897 11.240000000 2.810000000 2.810000000 0.000000000 0.000000000 0.000000000 -92.465477
20 1.0000 22.9897 14.050000000 2.810000000 0.000000000 -0.000000000 0.000000000 0.000000000 -92.465477
21 -1.0000 35.4530 14.050000000 0.000000000 0.000000000 -0.000000000 0.000000000 0.000000000 -92.465477
22 -1.0000 35.4530 11.240000000 2.810000000 0.000000000 -0.000000000 -0.000000000 0.000000000 -92.465477
23 -1.0000 35.4530 11.240000000 0.000000000 2.810000000 -0.000000000 0.000000000 -0.000000000 -92.465477
24 -1.0000 35.4530 14.050000000 2.810000000 2.810000000 -0.000000000 0.000000000 0.000000000 -92.465477
25 1.0000 22.9897 0.000000000 5.620000000 0.000000000 0.000000000 -0.000000000 0.000000000 -92.465477
26 1.0000 22.9897 2.810000000 5.620000000 2.810000000 -0.000000000 -0.000000000 0.000000000 -92.465477
27 1.0000 22.9897 0.000000000 8.430000000 2.810000000 0.000000000 0.000000000 0.000000000 -92.465477
28 1.0000 22.9897 2.810000000 8.430000000 0.000000000 -0.000000000 0.000000000 0.000000000 -92.465477
29 -1.0000 35.4530 2.810000000 5.620000000 0.000000000 0.000000000 -0.000000000 0.000000000 -92.465477
30 -1.0000 35.4530 0.000000000 8.430000000 0.000000000 0.000000000 0.000000000 0.000000000 -92.465477
31 -1.0000 35.4530 0.000000000 5.620000000 2.810000000 0.000000000 -0.000000000 -0.000000000 -92.465477
32 -1.0000 35.4530 2.810000000 8.430000000 2.810000000 0.000000000 0.000000000 -0.000000000 -92.465477
33 1.0000 22.9897 5.620000000 5.620000000 0.000000000 -0.000000000 -0.000000000 0.000000000 -92.465477
34 1.0000 22.9897 8.430000000 5.620000000 2.810000000 0.000000000 -0.000000000 0.000000000 -92.465477
35 1.0000 22.9897 5.620000000 8.430000000 2.810000000 -0.000000000 0.000000000 0.000000000 -92.465477
36 1.0000 22.9897 8.430000000 8.430000000 0.000000000 0.000000000 0.000000000 0.000000000 -92.465477
37 -1.0000 35.4530 8.430000000 5.620000000 0.000000000 0.000000000 -0.000000000 0.000000000 -92.465477
38 -1.0000 35.4530 5.620000000 8.430000000 0.000000000 -0.000000000 0.000000000 0.000000000 -92.465477
39 -1.0000 35.4530 5.620000000 5.620000000 2.810000000 -0.000000000 -0.000000000 -0.000000000 -92.465477
40 -1.0000 35.4530 8.430000000 8.430000000 2.810000000 0.000000000 0.000000000 -0.000000000 -92.465477
41 1.0000 22.9897 11.240000000 5.620000000 0.000000000 -0.000000000 -0.000000000 0.000000000 -92.465477
42 1.0000 22.9897 14.050000000 5.620000000 2.810000000 -0.000000000 -0.000000000 0.000000000 -92.465477
43 1.0000 22.9897 11.240000000 8.430000000 2.810000000 0.000000000 0.000000000 0.000000000 -92.465477
44 1.0000 22.9897 14.050000000 8.430000000 0.000000000 -0.000000000 0.000000000 0.000000000 -92.465477
45 -1.0000 35.4530 14.050000000 5.620000000 0.000000000 -0.000000000 -0.000000000 0.000000000 -92.465477
46 -1.0000 35.4530 11.240000000 8.430000000 0.000000000 0.000000000 0.000000000 0.000000000 -92.465477
47 -1.0000 35.4530 11.240000000 5.620000000 2.810000000 0.000000000 -0.000000000 -0.000000000 -92.465477
48 -1.0000 35.4530 14.050000000 8.430000000 2.810000000 -0.000000000 0.000000000 -0.000000000 -92.465477
49 1.0000 22.9897 0.000000000 11.240000000 0.000000000 0.000000000 -0.000000000 0.000000000 -92.465477
50 1.0000 22.9897 2.810000000 11.240000000 2.810000000 -0.000000000 -0.000000000 0.000000000 -92.465477
51 1.0000 22.9897 0.000000000 14.050000000 2.810000000 0.000000000 -0.000000000 -0.000000000 -92.465477
52 1.0000 22.9897 2.810000000 14.050000000 0.000000000 -0.000000000 -0.000000000 0.000000000 -92.465477
53 -1.0000 35.4530 2.810000000 11.240000000 0.000000000 0.000000000 0.000000000 0.000000000 -92.465477
54 -1.0000 35.4530 0.000000000 14.050000000 0.000000000 0.000000000 -0.000000000 0.000000000 -92.465477
55 -1.0000 35.4530 0.000000000 11.240000000 2.810000000 0.000000000 0.000000000 -0.000000000 -92.465477
56 -1.0000 35.4530 2.810000000 14.050000000 2.810000000 0.000000000 -0.000000000 -0.000000000 -92.465477
57 1.0000 22.9897 5.620000000 11.240000000 0.000000000 -0.000000000 -0.000000000 0.000000000 -92.465477
58 1.0000 22.9897 8.430000000 11.240000000 2.810000000 0.000000000 -0.000000000 0.000000000 -92.465477
59 1.0000 22.9897 5.620000000 14.050000000 2.810000000 -0.000000000 -0.000000000 0.000000000 -92.465477
60 1.0000 22.9897 8.430000000 14.050000000 0.000000000 0.000000000 -0.000000000 0.000000000 -92.465477
61 -1.0000 35.4530 8.430000000 11.240000000 0.000000000 0.000000000 0.000000000 0.000000000 -92.465477
62 -1.0000 35.4530 5.620000000 14.050000000 0.000000000 -0.000000000 -0.000000000 0.000000000 -92.465477
63 -1.0000 35.4530 5.620000000 11.240000000 2.810000000 -0.000000000 0.000000000 -0.000000000 -92.465477
64 -1.0000 35.4530 8.430000000 14.050000000 2.810000000 0.000000000 -0.000000000 -0.000000000 -92.465477
65 1.0000 22.9897 11.240000000 11.240000000 0.000000000 0.000000000 0.000000000 0.000000000 -92.465477
66 1.0000 22.9897 14.050000000 11.240000000 2.810000000 -0.000000000 0.000000000 0.000000000 -92.465477
67 1.0000 22.9897 11.240000000 14.050000000 2.810000000 0.000000000 -0.000000000 0.000000000 -92.465477
68 1.0000 22.9897 14.050000000 14.050000000 0.000000000 -0.000000000 -0.000000000 0.000000000 -92.465477
69 -1.0000 35.4530 14.050000000 11.240000000 0.000000000 -0.000000000 -0.000000000 0.000000000 -92.465477
70 -1.0000 35.4530 11.240000000 14.050000000 0.000000000 -0.000000000 -0.000000000 0.000000000 -92.465477
71 -1.0000 35.4530 11.240000000 11.240000000 2.810000000 -0.000000000 -0.000000000 -0.000000000 -92.465477
72 -1.0000 35.4530 14.050000000 14.050000000 2.810000000 -0.000000000 -0.000000000 0.000000000 -92.465477
73 1.0000 22.9897 0.000000000 0.000000000 5.620000000 0.000000000 0.000000000 -0.000000000 -92.465477
74 1.0000 22.9897 2.810000000 0.000000000 8.430000000 0.000000000 0.000000000 0.000000000 -92.465477
75 1.0000 22.9897 0.000000000 2.810000000 8.430000000 0.000000000 0.000000000 0.000000000 -92.465477
76 1.0000 22.9897 2.810000000 2.810000000 5.620000000 -0.000000000 0.000000000 -0.000000000 -92.465477
77 -1.0000 35.4530 2.810000000 0.000000000 5.620000000 0.000000000 0.000000000 -0.000000000 -92.465477
78 -1.0000 35.4530 0.000000000 2.810000000 5.620000000 0.000000000 -0.000000000 -0.000000000 -92.465477
79 -1.0000 35.4530 0.000000000 0.000000000 8.430000000 0.000000000 0.000000000 0.000000000 -92.465477
80 -1.0000 35.4530 2.810000000 2.810000000 8.430000000 -0.000000000 -0.000000000 0.000000000 -92.465477
81 1.0000 22.9897 5.620000000 0.000000000 5.620000000 -0.000000000 0.000000000 -0.000000000 -92.465477
82 1.0000 22.9897 8.430000000 0.000000000 8.430000000 0.000000000 0.000000000 0.000000000 -92.465477
83 1.0000 22.9897 5.620000000 2.810000000 8.430000000 -0.000000000 0.000000000 0.000000000 -92.465477
84 1.0000 22.9897 8.430000000 2.810000000 5.620000000 0.000000000 0.000000000 -0.000000000 -92.465477
85 -1.0000 35.4530 8.430000000 0.000000000 5.620000000 0.000000000 0.000000000 -0.000000000 -92.465477
86 -1.0000 35.4530 5.620000000 2.810000000 5.620000000 -0.000000000 -0.000000000 -0.000000000 -92.465477
87 -1.0000 35.4530 5.620000000 0.000000000 8.430000000 -0.000000000 0.000000000 0.000000000 -92.465477
88 -1.0000 35.4530 8.430000000 2.810000000 8.430000000 0.000000000 -0.000000000 0.000000000 -92.465477
89 1.0000 22.9897 11.240000000 0.000000000 5.620000000 -0.000000000 0.000000000 -0.000000000 -92.465477
90 1.0000 22.9897 14.050000000 0.000000000 8.430000000 -0.000000000 0.000000000 0.000000000 -92.465477
91 1.0000 22.9897 11.240000000 2.810000000 8.430000000 -0.000000000 0.000000000 0.000000000 -92.465477
92 1.0000 22.9897 14.050000000 2.810000000 5.620000000 -0.000000000 0.000000000 -0.000000000 -92.465477
93 -1.0000 35.4530 14.050000000 0.000000000 5.620000000 -0.000000000 0.000000000 -0.000000000 -92.465477
94 -1.0000 35.4530 11.240000000 2.810000000 5.620000000 0.000000000 -0.000000000 -0.000000000 -92.465477
95 -1.0000 35.4530 11.240000000 0.000000000 8.430000000 0.000000000 0.000000000 0.000000000 -92.465477
96 -1.0000 35.4530 14.050000000 2.810000000 8.430000000 -0.000000000 -0.000000000 0.000000000 -92.465477
97 1.0000 22.9897 0.000000000 5.620000000 5.620000000 0.000000000 -0.000000000 -0.000000000 -92.465477
98 1.0000 22.9897 2.810000000 5.620000000 8.430000000 0.000000000 -0.000000000 0.000000000 -92.465477
99 1.0000 22.9897 0.000000000 8.430000000 8.430000000 0.000000000 0.000000000 0.000000000 -92.465477
100 1.0000 22.9897 2.810000000 8.430000000 5.620000000 0.000000000 0.000000000 -0.000000000 -92.465477
101 -1.0000 35.4530 2.810000000 5.620000000 5.620000000 -0.000000000 -0.000000000 -0.000000000 -92.465477
102 -1.0000 35.4530 0.000000000 8.430000000 5.620000000 0.000000000 0.000000000 -0.000000000 -92.465477
103 -1.0000 35.4530 0.000000000 5.620000000 8.430000000 0.000000000 -0.000000000 0.000000000 -92.465477
104 -1.0000 35.4530 2.810000000 8.430000000 8.430000000 -0.000000000 0.000000000 0.000000000 -92.465477
105 1.0000 22.9897 5.620000000 5.620000000 5.620000000 -0.000000000 -0.000000000 -0.000000000 -92.465477
106 1.0000 22.9897 8.430000000 5.620000000 8.430000000 0.000000000 -0.000000000 0.000000000 -92.465477
107 1.0000 22.9897 5.620000000 8.430000000 8.430000000 -0.000000000 0.000000000 0.000000000 -92.465477
108 1.0000 22.9897 8.430000000 8.430000000 5.620000000 0.000000000 0.000000000 -0.000000000 -92.465477
109 -1.0000 35.4530 8.430000000 5.620000000 5.620000000 0.000000000 -0.000000000 -0.000000000 -92.465477
110 -1.0000 35.4530 5.620000000 8.430000000 5.620000000 -0.000000000 0.000000000 -0.000000000 -92.465477
111 -1.0000 35.4530 5.620000000 5.620000000 8.430000000 -0.000000000 -0.000000000 0.000000000 -92.465477
112 -1.0000 35.4530 8.430000000 8.430000000 8.430000000 0.000000000 0.000000000 0.000000000 -92.465477
113 1.0000 22.9897 11.240000000 5.620000000 5.620000000 -0.000000000 -0.000000000 -0.000000000 -92.465477
114 1.0000 22.9897 14.050000000 5.620000000 8.430000000 -0.000000000 -0.000000000 0.000000000 -92.465477
115 1.0000 22.9897 11.240000000 8.430000000 8.430000000 0.000000000 0.000000000 0.000000000 -92.465477
116 1.0000 22.9897 14.050000000 8.430000000 5.620000000 -0.000000000 0.000000000 -0.000000000 -92.465477
117 -1.0000 35.4530 14.050000000 5.620000000 5.620000000 -0.000000000 -0.000000000 -0.000000000 -92.465477
118 -1.0000 35.4530 11.240000000 8.430000000 5.620000000 -0.000000000 0.000000000 -0.000000000 -92.465477
119 -1.0000 35.4530 11.240000000 5.620000000 8.430000000 -0.000000000 -0.000000000 0.000000000 -92.465477
120 -1.0000 35.4530 14.050000000 8.430000000 8.430000000 -0.000000000 0.000000000 0.000000000 -92.465477
121 1.0000 22.9897 0.000000000 11.240000000 5.620000000 0.000000000 -0.000000000 -0.000000000 -92.465477
122 1.0000 22.9897 2.810000000 11.240000000 8.430000000 0.000000000 -0.000000000 0.000000000 -92.465477
123 1.0000 22.9897 0.000000000 14.050000000 8.430000000 0.000000000 -0.000000000 0.000000000 -92.465477
124 1.0000 22.9897 2.810000000 14.050000000 5.620000000 -0.000000000 -0.000000000 -0.000000000 -92.465477
125 -1.0000 35.4530 2.810000000 11.240000000 5.620000000 -0.000000000 0.000000000 -0.000000000 -92.465477
126 -1.0000 35.4530 0.000000000 14.050000000 5.620000000 0.000000000 -0.000000000 -0.000000000 -92.465477
127 -1.0000 35.4530 0.000000000 11.240000000 8.430000000 0.000000000 0.000000000 0.000000000 -92.465477
128 -1.0000 35.4530 2.810000000 14.050000000 8.430000000 -0.000000000 -0.000000000 0.000000000 -92.465477
129 1.0000 22.9897 5.620000000 11.240000000 5.620000000 -0.000000000 -0.000000000 -0.000000000 -92.465477
130 1.0000 22.9897 8.430000000 11.240000000 8.430000000 0.000000000 0.000000000 0.000000000 -92.465477
131 1.0000 22.9897 5.620000000 14.050000000 8.430000000 -0.000000000 -0.000000000 0.000000000 -92.465477
132 1.0000 22.9897 8.430000000 14.050000000 5.620000000 0.000000000 -0.000000000 -0.000000000 -92.465477
133 -1.0000 35.4530 8.430000000 11.240000000 5.620000000 0.000000000 0.000000000 -0.000000000 -92.465477
134 -1.0000 35.4530 5.620000000 14.050000000 5.620000000 -0.000000000 -0.000000000 -0.000000000 -92.465477
135 -1.0000 35.4530 5.620000000 11.240000000 8.430000000 -0.000000000 0.000000000 0.000000000 -92.465477
136 -1.0000 35.4530 8.430000000 14.050000000 8.430000000 0.000000000 -0.000000000 0.000000000 -92.465477
137 1.0000 22.9897 11.240000000 11.240000000 5.620000000 0.000000000 -0.000000000 -0.000000000 -92.465477
138 1.0000 22.9897 14.050000000 11.240000000 8.430000000 -0.000000000 -0.000000000 0.000000000 -92.465477
139 1.0000 22.9897 11.240000000 14.050000000 8.430000000 0.000000000 -0.000000000 0.000000000 -92.465477
140 1.0000 22.9897 14.050000000 14.050000000 5.620000000 -0.000000000 -0.000000000 -0.000000000 -92.465477
141 -1.0000 35.4530 14.050000000 11.240000000 5.620000000 -0.000000000 0.000000000 -0.000000000 -92.465477
142 -1.0000 35.4530 11.240000000 14.050000000 5.620000000 0.000000000 -0.000000000 -0.000000000 -92.465477
143 -1.0000 35.4530 11.240000000 11.240000000 8.430000000 0.000000000 0.000000000 0.000000000 -92.465477
144 -1.0000 35.4530 14.050000000 14.050000000 8.430000000 -0.000000000 -0.000000000 0.000000000 -92.465477
145 1.0000 22.9897 0.000000000 0.000000000 11.240000000 0.000000000 0.000000000 0.000000000 -92.465477
146 1.0000 22.9897 2.810000000 0.000000000 14.050000000 -0.000000000 0.000000000 -0.000000000 -92.465477
147 1.0000 22.9897 0.000000000 2.810000000 14.050000000 0.000000000 0.000000000 -0.000000000 -92.465477
148 1.0000 22.9897 2.810000000 2.810000000 11.240000000 -0.000000000 0.000000000 0.000000000 -92.465477
149 -1.0000 35.4530 2.810000000 0.000000000 11.240000000 -0.000000000 0.000000000 0.000000000 -92.465477
150 -1.0000 35.4530 0.000000000 2.810000000 11.240000000 0.000000000 -0.000000000 0.000000000 -92.465477
151 -1.0000 35.4530 0.000000000 0.000000000 14.050000000 0.000000000 0.000000000 -0.000000000 -92.465477
152 -1.0000 35.4530 2.810000000 2.810000000 14.050000000 -0.000000000 -0.000000000 -0.000000000 -92.465477
153 1.0000 22.9897 5.620000000 0.000000000 11.240000000 -0.000000000 0.000000000 -0.000000000 -92.465477
154 1.0000 22.9897 8.430000000 0.000000000 14.050000000 0.000000000 0.000000000 -0.000000000 -92.465477
155 1.0000 22.9897 5.620000000 2.810000000 14.050000000 -0.000000000 0.000000000 -0.000000000 -92.465477
156 1.0000 22.9897 8.430000000 2.810000000 11.240000000 0.000000000 0.000000000 -0.000000000 -92.465477
157 -1.0000 35.4530 8.430000000 0.000000000 11.240000000 0.000000000 0.000000000 0.000000000 -92.465477
158 -1.0000 35.4530 5.620000000 2.810000000 11.240000000 -0.000000000 -0.000000000 0.000000000 -92.465477
159 -1.0000 35.4530 5.620000000 0.000000000 14.050000000 -0.000000000 0.000000000 -0.000000000 -92.465477
160 -1.0000 35.4530 8.430000000 2.810000000 14.050000000 0.000000000 -0.000000000 -0.000000000 -92.465477
161 1.0000 22.9897 11.240000000 0.000000000 11.240000000 0.000000000 0.000000000 -0.000000000 -92.465477
162 1.0000 22.9897 14.050000000 0.000000000 14.050000000 -0.000000000 0.000000000 -0.000000000 -92.465477
163 1.0000 22.9897 11.240000000 2.810000000 14.050000000 -0.000000000 0.000000000 -0.000000000 -92.465477
164 1.0000 22.9897 14.050000000 2.810000000 11.240000000 -0.000000000 0.000000000 0.000000000 -92.465477
165 -1.0000 35.4530 14.050000000 0.000000000 11.240000000 -0.000000000 0.000000000 -0.000000000 -92.465477
166 -1.0000 35.4530 11.240000000 2.810000000 11.240000000 0.000000000 -0.000000000 0.000000000 -92.465477
167 -1.0000 35.4530 11.240000000 0.000000000 14.050000000 -0.000000000 0.000000000 -0.000000000 -92.465477
168 -1.0000 35.4530 14.050000000 2.810000000 14.050000000 -0.000000000 0.000000000 -0.000000000 -92.465477
169 1.0000 22.9897 0.000000000 5.620000000 11.240000000 0.000000000 -0.000000000 -0.000000000 -92.465477
170 1.0000 22.9897 2.810000000 5.620000000 14.050000000 0.000000000 -0.000000000 -0.000000000 -92.465477
171 1.0000 22.9897 0.000000000 8.430000000 14.050000000 0.000000000 0.000000000 -0.000000000 -92.465477
172 1.0000 22.9897 2.810000000 8.430000000 11.240000000 0.000000000 0.000000000 -0.000000000 -92.465477
173 -1.0000 35.4530 2.810000000 5.620000000 11.240000000 -0.000000000 -0.000000000 0.000000000 -92.465477
174 -1.0000 35.4530 0.000000000 8.430000000 11.240000000 0.000000000 0.000000000 0.000000000 -92.465477
175 -1.0000 35.4530 0.000000000 5.620000000 14.050000000 0.000000000 -0.000000000 -0.000000000 -92.465477
176 -1.0000 35.4530 2.810000000 8.430000000 14.050000000 0.000000000 0.000000000 -0.000000000 -92.465477
177 1.0000 22.9897 5.620000000 5.620000000 11.240000000 -0.000000000 -0.000000000 -0.000000000 -92.465477
178 1.0000 22.9897 8.430000000 5.620000000 14.050000000 0.000000000 -0.000000000 -0.000000000 -92.465477
179 1.0000 22.9897 5.620000000 8.430000000 14.050000000 -0.000000000 0.000000000 -0.000000000 -92.465477
180 1.0000 22.9897 8.430000000 8.430000000 11.240000000 0.000000000 0.000000000 0.000000000 -92.465477
181 -1.0000 35.4530 8.430000000 5.620000000 11.240000000 0.000000000 -0.000000000 0.000000000 -92.465477
182 -1.0000 35.4530 5.620000000 8.430000000 11.240000000 -0.000000000 0.000000000 -0.000000000 -92.465477
183 -1.0000 35.4530 5.620000000 5.620000000 14.050000000 -0.000000000 -0.000000000 -0.000000000 -92.465477
184 -1.0000 35.4530 8.430000000 8.430000000 14.050000000 0.000000000 0.000000000 -0.000000000 -92.465477
185 1.0000 22.9897 11.240000000 5.620000000 11.240000000 -0.000000000 -0.000000000 0.000000000 -92.465477
186 1.0000 22.9897 14.050000000 5.620000000 14.050000000 -0.000000000 -0.000000000 -0.000000000 -92.465477
187 1.0000 22.9897 11.240000000 8.430000000 14.050000000 -0.000000000 0.000000000 -0.000000000 -92.465477
188 1.0000 22.9897 14.050000000 8.430000000 11.240000000 -0.000000000 0.000000000 -0.000000000 -92.465477
189 -1.0000 35.4530 14.050000000 5.620000000 11.240000000 -0.000000000 -0.000000000 0.000000000 -92.465477
190 -1.0000 35.4530 11.240000000 8.430000000 11.240000000 -0.000000000 0.000000000 0.000000000 -92.465477
191 -1.0000 35.4530 11.240000000 5.620000000 14.050000000 0.000000000 -0.000000000 -0.000000000 -92.465477
192 -1.0000 35.4530 14.050000000 8.430000000 14.050000000 -0.000000000 0.000000000 -0.000000000 -92.465477
193 1.0000 22.9897 0.000000000 11.240000000 11.240000000 0.000000000 -0.000000000 0.000000000 -92.465477
194 1.0000 22.9897 2.810000000 11.240000000 14.050000000 -0.000000000 -0.000000000 -0.000000000 -92.465477
195 1.0000 22.9897 0.000000000 14.050000000 14.050000000 0.000000000 -0.000000000 -0.000000000 -92.465477
196 1.0000 22.9897 2.810000000 14.050000000 11.240000000 -0.000000000 -0.000000000 -0.000000000 -92.465477
197 -1.0000 35.4530 2.810000000 11.240000000 11.240000000 -0.000000000 0.000000000 0.000000000 -92.465477
198 -1.0000 35.4530 0.000000000 14.050000000 11.240000000 0.000000000 -0.000000000 -0.000000000 -92.465477
199 -1.0000 35.4530 0.000000000 11.240000000 14.050000000 0.000000000 0.000000000 -0.000000000 -92.465477
200 -1.0000 35.4530 2.810000000 14.050000000 14.050000000 0.000000000 -0.000000000 -0.000000000 -92.465477
201 1.0000 22.9897 5.620000000 11.240000000 11.240000000 -0.000000000 -0.000000000 0.000000000 -92.465477
202 1.0000 22.9897 8.430000000 11.240000000 14.050000000 0.000000000 -0.000000000 -0.000000000 -92.465477
203 1.0000 22.9897 5.620000000 14.050000000 14.050000000 -0.000000000 -0.000000000 -0.000000000 -92.465477
204 1.0000 22.9897 8.430000000 14.050000000 11.240000000 0.000000000 -0.000000000 -0.000000000 -92.465477
205 -1.0000 35.4530 8.430000000 11.240000000 11.240000000 0.000000000 0.000000000 0.000000000 -92.465477
206 -1.0000 35.4530 5.620000000 14.050000000 11.240000000 -0.000000000 -0.000000000 0.000000000 -92.465477
207 -1.0000 35.4530 5.620000000 11.240000000 14.050000000 -0.000000000 0.000000000 -0.000000000 -92.465477
208 -1.0000 35.4530 8.430000000 14.050000000 14.050000000 0.000000000 -0.000000000 -0.000000000 -92.465477
209 1.0000 22.9897 11.240000000 11.240000000 11.240000000 0.000000000 -0.000000000 -0.000000000 -92.465477
210 1.0000 22.9897 14.050000000 11.240000000 14.050000000 -0.000000000 -0.000000000 -0.000000000 -92.465477
211 1.0000 22.9897 11.240000000 14.050000000 14.050000000 0.000000000 -0.000000000 -0.000000000 -92.465477
212 1.0000 22.9897 14.050000000 14.050000000 11.240000000 -0.000000000 -0.000000000 0.000000000 -92.465477
213 -1.0000 35.4530 14.050000000 11.240000000 11.240000000 -0.000000000 0.000000000 0.000000000 -92.465477
214 -1.0000 35.4530 11.240000000 14.050000000 11.240000000 0.000000000 -0.000000000 0.000000000 -92.465477
215 -1.0000 35.4530 11.240000000 11.240000000 14.050000000 -0.000000000 0.000000000 -0.000000000 -92.465477
216 -1.0000 35.4530 14.050000000 14.050000000 14.050000000 -0.000000000 -0.000000000 -0.000000000 -92.465477
ITEM: TIMESTEP
10000
ITEM: NUMBER OF ATOMS
216
ITEM: BOX BOUNDS pp pp pp
0.0000000000000000e+00 1.6859999999999999e+01
0.0000000000000000e+00 1.6859999999999999e+01
0.0000000000000000e+00 1.6859999999999999e+01
ITEM: ATOMS id q mass x y z fx fy fz c_1
1 1.0000 22.9897 -0.036347854 -0.031230507 0.123884881 -8.077147387 5.095906606 -5.450083406 -89.862475
2 1.0000 22.9897 2.642581225 -0.128425310 2.835905886 5.755140697 -3.865495209 5.222739706 -92.062721
3 1.0000 22.9897 -0.067228070 2.690053083 3.005821526 9.648371055 9.986010875 1.594433404 -91.849224
4 1.0000 22.9897 2.761515925 2.818033011 0.136083549 -3.042501598 -2.716539007 3.827477620 -93.320630
5 -1.0000 35.4530 2.737585550 -0.041989627 0.047577769 1.044804736 -2.068819771 14.926116346 -92.204501
6 -1.0000 35.4530 -0.138202727 2.813810014 0.176877640 6.441995501 -4.924967362 3.855504940 -91.991445
7 -1.0000 35.4530 -0.150198500 -0.046463368 2.882485767 -1.000186203 -5.071733046 0.729227411 -94.313578
8 -1.0000 35.4530 2.775559541 2.635208517 2.956607399 -3.144667323 9.022450768 -7.765782211 -91.544795
9 1.0000 22.9897 5.563316410 -0.045102435 -0.054485654 -1.973146991 3.763484018 2.559386576 -92.337556
10 1.0000 22.9897 8.436866028 0.002678957 2.726425063 -23.433826373 -2.304069000 1.274273343 -89.756055
11 1.0000 22.9897 5.603068915 2.624069565 2.888115288 -0.756804727 9.731038957 -23.843440561 -92.325049
12 1.0000 22.9897 8.344487247 2.831517211 -0.018984801 0.015978503 -4.452033618 -6.229927738 -92.761387
13 -1.0000 35.4530 8.377247635 -0.013539773 -0.124465863 -1.530093668 10.024853039 2.544148963 -92.565221
14 -1.0000 35.4530 5.582170143 2.797738551 -0.015666101 -4.328256809 -0.910234235 5.735689253 -91.229991
15 -1.0000 35.4530 5.439154122 -0.072632716 2.717272563 12.041955322 -8.633534592 5.584492655 -91.014422
16 -1.0000 35.4530 8.427456732 2.803767784 2.770756708 -6.150640070 -5.185859702 3.949857630 -93.047861
17 1.0000 22.9897 11.190435189 -0.112949752 -0.025733308 -6.014622045 -1.583878397 1.429990467 -91.607793
18 1.0000 22.9897 13.887901154 0.006392162 2.895697123 4.112480444 -5.443067734 -7.844892543 -89.574894
19 1.0000 22.9897 11.167315408 2.740343704 2.782798585 9.194608782 5.347284672 4.911512461 -88.829456
20 1.0000 22.9897 13.925754461 2.846448416 0.152481120 0.436651220 2.331341185 -17.638899939 -89.576766
21 -1.0000 35.4530 13.940856685 0.103736316 0.036782045 8.287408600 -6.608397458 5.501076372 -93.856410
22 -1.0000 35.4530 11.112204089 2.681050546 0.006022047 6.628534639 6.515686578 -0.118132618 -93.811777
23 -1.0000 35.4530 11.103579623 -0.067742408 2.804661687 17.456221677 0.032484388 3.116578263 -93.728906
24 -1.0000 35.4530 14.054179801 2.793138023 2.869804615 -12.864409648 -3.710628843 3.624367080 -93.910517
25 1.0000 22.9897 -0.124324201 5.614190549 0.156884952 12.213203579 -1.743518577 -4.537462254 -92.888160
26 1.0000 22.9897 2.891431346 5.514894107 2.893275115 -12.781642097 -3.079360901 -5.061253825 -91.402523
27 1.0000 22.9897 0.118300198 8.331057465 2.816478400 -6.120332020 5.611643458 -2.147155452 -92.707718
28 1.0000 22.9897 2.795485429 8.369948254 0.045477485 3.002299225 8.663270837 -1.232604423 -91.374487
29 -1.0000 35.4530 2.748931335 5.613396359 -0.018323581 -2.858785477 -2.437768278 10.041853840 -92.070272
30 -1.0000 35.4530 0.050079125 8.402549612 -0.021264343 -6.854115467 4.882639485 5.934694827 -91.835804
31 -1.0000 35.4530 0.027792793 5.526755378 2.958526616 1.343818609 -1.127447480 -6.178031338 -92.791369
32 -1.0000 35.4530 2.916039615 8.346091460 2.863702037 -3.074979713 -8.429989963 -0.723915763 -92.492827
33 1.0000 22.9897 5.550215354 5.622656766 -0.174604779 5.809524496 -7.228938203 10.242604080 -90.894616
34 1.0000 22.9897 8.399297373 5.578190689 2.771970143 2.283701092 0.019699074 -6.752442521 -91.704480
35 1.0000 22.9897 5.682233811 8.248987336 2.740431582 0.686139570 5.712602376 8.175401954 -91.657591
36 1.0000 22.9897 8.469740851 8.459672351 -0.051312372 -0.959936429 -10.635201238 1.517259955 -92.623087
37 -1.0000 35.4530 8.455166819 5.615440860 -0.035923739 -9.995892561 4.605132143 -4.602679151 -91.978966
38 -1.0000 35.4530 5.597299246 8.381579972 0.023709044 3.903980719 3.717849891 -7.338661241 -94.137705
39 -1.0000 35.4530 5.598958777 5.397223853 2.700700040 8.588316731 9.223002626 0.708598965 -91.924011
40 -1.0000 35.4530 8.458953949 8.377238911 2.803064075 1.796354395 6.076212392 -15.222361592 -93.113052
41 1.0000 22.9897 11.230975893 5.549506956 -0.027506131 -3.160946330 2.017026397 1.484676015 -91.546656
42 1.0000 22.9897 14.031647432 5.536752055 2.818817286 5.999586389 13.739346757 10.071459808 -90.908734
43 1.0000 22.9897 11.247445552 8.354040341 2.804868323 7.194490420 14.555480217 -4.401631246 -91.212403
44 1.0000 22.9897 14.097945955 8.475463892 0.009329338 0.581706855 -2.450602279 3.637945530 -92.362744
45 -1.0000 35.4530 14.001209166 5.627188972 0.054475003 -5.373802432 3.354324293 -4.507606178 -93.230574
46 -1.0000 35.4530 11.298287533 8.405018218 -0.016927302 -1.762866649 -8.719981212 4.069205517 -91.476925
47 -1.0000 35.4530 11.246275852 5.646025166 2.771385956 -2.949257009 -18.187860094 -4.242736899 -92.799245
48 -1.0000 35.4530 14.107484825 8.421420877 2.855712543 0.382795291 -0.565576488 -8.167772621 -91.660498
49 1.0000 22.9897 -0.041158921 11.298171823 -0.070719763 7.675338650 -12.678931959 16.103257545 -90.778201
50 1.0000 22.9897 2.903038522 11.094193082 2.877624737 -1.009259484 5.776783111 -0.648743389 -93.933897
51 1.0000 22.9897 -0.023288523 14.043882771 2.850392170 0.642852282 -8.980470252 -12.194261676 -89.659516
52 1.0000 22.9897 2.714494114 13.926796467 0.025841134 3.441078538 13.863597584 0.731442413 -91.549128
53 -1.0000 35.4530 2.714375412 11.213517590 0.072052717 10.808335997 -11.820355203 -4.018196007 -91.110227
54 -1.0000 35.4530 -0.101977843 14.042930202 -0.054037318 9.488004670 4.757017571 3.017056117 -94.360588
55 -1.0000 35.4530 0.096594740 11.187449919 2.846783747 -2.096256876 1.647539572 -2.949977464 -91.241660
56 -1.0000 35.4530 2.827269186 13.896957888 2.840966468 -3.044600184 4.619822523 -7.118243425 -92.010378
57 1.0000 22.9897 5.638988933 11.200383413 -0.084833393 -2.984903647 1.307202994 5.532633209 -92.643659
58 1.0000 22.9897 8.509786050 11.276429942 2.864630155 -5.600609913 -6.709423812 -13.916137035 -90.924652
59 1.0000 22.9897 5.682549913 13.996892110 2.703861543 -5.035418383 -2.522310377 -1.899177436 -93.450147
60 1.0000 22.9897 8.374729195 14.130119387 -0.148879071 -1.463502778 -19.349980702 7.065613999 -92.010271
61 -1.0000 35.4530 8.487181443 11.181859781 -0.086050888 -1.487545876 13.733760746 6.908057456 -89.773429
62 -1.0000 35.4530 5.518706413 14.003217975 -0.068222049 5.715834713 1.653472762 3.263443890 -91.394244
63 -1.0000 35.4530 5.706229633 11.156544079 2.705379165 0.138777362 -1.591878821 6.599539318 -90.822708
64 -1.0000 35.4530 8.497060876 14.064085812 2.684042456 -2.576815496 -0.473582361 3.984579614 -92.425151
65 1.0000 22.9897 11.355422169 11.145582454 -0.042480170 -10.412542841 6.110959578 -0.354401863 -93.837331
66 1.0000 22.9897 14.154557758 11.286672713 2.819291784 -3.148285851 -16.219436977 -3.089897059 -92.202119