LAMMPS (28 Mar 2023 - Development)
OMP_NUM_THREADS environment is not set. Defaulting to 1 thread. (src/comm.cpp:98)
  using 1 OpenMP thread(s) per MPI task
# LAMMPS input script for NaCl crystal simulation with real units

units real
dimension 3
boundary p p p

# Atom definition
atom_style charge
read_data salt3UC.positions
Reading data file ...
  orthogonal box = (0 0 0) to (16.86 16.86 16.86)
  1 by 1 by 1 MPI processor grid
  reading atoms ...
  216 atoms
  reading velocities ...
  216 velocities
  read_data CPU = 0.034 seconds

# Define groups
group Na type 1
108 atoms in group Na
group Cl type 2
108 atoms in group Cl

# Set up pair style and coefficients
pair_style lj/cut/coul/long 7.0 10.0
kspace_style ewald 1e-5

#THIS IS NOT REAL JUST FOR SIMPLICITY IN PROJECT
pair_coeff 1 1 0.1 3.492
pair_coeff 1 2 0.1 3.492
pair_coeff 2 2 0.1 3.492


timestep 2.0

compute 1 all pe/atom
compute 2 all pair lj/cut/coul/long ecoul
compute 3 all pair lj/cut/coul/long evdwl
compute 4 all pe
variable elong equal elong


variable T equal 300
velocity all create ${T} 31454 dist gaussian mom yes
velocity all create 300 31454 dist gaussian mom yes


# Run simulation
fix 1 all nve
dump data all custom 10000 dump.atom id q mass x y z fx fy fz c_1
dump_modify data format line "%d %.4f %.4f %.9f %.9f %.9f %.9f %.9f %.9f %9f"
fix eng_print all print 10000 "$(c_2) $(v_elong) $(c_3) $(c_4)" file energy_breakdown.txt
dump_modify data sort id
run 100000
Ewald initialization ...
  using 12-bit tables for long-range coulomb (src/kspace.cpp:342)
  G vector (1/distance) = 0.30830185
  estimated absolute RMS force accuracy = 0.0033218313
  estimated relative force accuracy = 1.0003596e-05
  KSpace vectors: actual max1d max3d = 462 6 1098
                  kxmax kymax kzmax  = 6 6 6
Generated 0 of 1 mixed pair_coeff terms from geometric mixing rule
Neighbor list info ...
  update: every = 1 steps, delay = 0 steps, check = yes
  max neighbors/atom: 2000, page size: 100000
  master list distance cutoff = 12
  ghost atom cutoff = 12
  binsize = 6, bins = 3 3 3
  1 neighbor lists, perpetual/occasional/extra = 1 0 0
  (1) pair lj/cut/coul/long, perpetual
      attributes: half, newton on
      pair build: half/bin/atomonly/newton
      stencil: half/bin/3d
      bin: standard
-9829.5515215678024106 -12473.771959531199172 2330.780420050722114 -19972.543061048239906
Per MPI rank memory allocation (min/avg/max) = 15.17 | 15.17 | 15.17 Mbytes
   Step          Temp          E_pair         E_mol          TotEng         Press     
         0   300           -19972.543      0             -19780.281      66165.045    
-9791.0687100139384711 -12469.846287074300562 2388.3998081956788155 -19872.515188892604783
-9792.7222966745048325 -12470.237857595000605 2387.3392430099434023 -19875.620911259611603
-9800.5301770665428194 -12470.194154343500486 2400.3054395129415752 -19870.418891897083085
-9799.9562785324942524 -12469.29977893169962 2391.5847497608074264 -19877.671307703432831
-9788.1206532676878851 -12469.471544438800265 2387.5399485387051755 -19870.052249167820264
-9798.2055774207783543 -12470.245060217799619 2392.9661141393539765 -19875.484523499195348
-9791.7104290538572968 -12470.009585086099833 2383.1414921058922118 -19878.578522034076741
-9798.7892210085046827 -12469.739536408900676 2401.8806335044073421 -19866.648123912949814
-9793.590398092448595 -12470.32850468650031 2392.3556935753276775 -19871.563209203603037
-9791.2688753828115296 -12469.961208108499704 2389.3745469783575572 -19871.855536512979597
    100000   147.09779     -19871.856      0             -19777.584      68792.977    
Loop time of 97.5969 on 1 procs for 100000 steps with 216 atoms

Performance: 177.055 ns/day, 0.136 hours/ns, 1024.622 timesteps/s, 221.318 katom-step/s
100.0% CPU use with 1 MPI tasks x 1 OpenMP threads

MPI task timing breakdown:
Section |  min time  |  avg time  |  max time  |%varavg| %total
---------------------------------------------------------------
Pair    | 44.309     | 44.309     | 44.309     |   0.0 | 45.40
Kspace  | 52.057     | 52.057     | 52.057     |   0.0 | 53.34
Neigh   | 0          | 0          | 0          |   0.0 |  0.00
Comm    | 0.8831     | 0.8831     | 0.8831     |   0.0 |  0.90
Output  | 0.023326   | 0.023326   | 0.023326   |   0.0 |  0.02
Modify  | 0.16575    | 0.16575    | 0.16575    |   0.0 |  0.17
Other   |            | 0.1582     |            |       |  0.16

Nlocal:            216 ave         216 max         216 min
Histogram: 1 0 0 0 0 0 0 0 0 0
Nghost:           3159 ave        3159 max        3159 min
Histogram: 1 0 0 0 0 0 0 0 0 0
Neighs:          36720 ave       36720 max       36720 min
Histogram: 1 0 0 0 0 0 0 0 0 0

Total # of neighbors = 36720
Ave neighs/atom = 170
Neighbor list builds = 0
Dangerous builds = 0
Total wall time: 0:01:37
