ITEM: TIMESTEP
0
ITEM: NUMBER OF ATOMS
5832
ITEM: BOX BOUNDS pp pp pp
0.0000000000000000e+00 5.0579999999999998e+01
0.0000000000000000e+00 5.0579999999999998e+01
0.0000000000000000e+00 5.0579999999999998e+01
ITEM: ATOMS id q mass x y z fx fy fz c_1
1 1.0000 22.9897 0.000000000 0.000000000 0.000000000 0.000000000 0.000000000 0.000000000 -92.465477
2 1.0000 22.9897 2.810000000 0.000000000 2.810000000 -0.000000000 0.000000000 -0.000000000 -92.465477
3 1.0000 22.9897 0.000000000 2.810000000 2.810000000 0.000000000 -0.000000000 -0.000000000 -92.465477
4 1.0000 22.9897 2.810000000 2.810000000 0.000000000 -0.000000000 -0.000000000 0.000000000 -92.465477
5 -1.0000 35.4530 2.810000000 0.000000000 0.000000000 0.000000000 0.000000000 0.000000000 -92.465477
6 -1.0000 35.4530 0.000000000 2.810000000 0.000000000 0.000000000 0.000000000 0.000000000 -92.465477
7 -1.0000 35.4530 0.000000000 0.000000000 2.810000000 0.000000000 0.000000000 0.000000000 -92.465477
8 -1.0000 35.4530 2.810000000 2.810000000 2.810000000 0.000000000 0.000000000 0.000000000 -92.465477
9 1.0000 22.9897 5.620000000 0.000000000 0.000000000 -0.000000000 0.000000000 0.000000000 -92.465477
10 1.0000 22.9897 8.430000000 0.000000000 2.810000000 0.000000000 0.000000000 0.000000000 -92.465477
11 1.0000 22.9897 5.620000000 2.810000000 2.810000000 -0.000000000 -0.000000000 -0.000000000 -92.465477
12 1.0000 22.9897 8.430000000 2.810000000 0.000000000 0.000000000 0.000000000 0.000000000 -92.465477
13 -1.0000 35.4530 8.430000000 0.000000000 0.000000000 0.000000000 0.000000000 0.000000000 -92.465477
14 -1.0000 35.4530 5.620000000 2.810000000 0.000000000 -0.000000000 -0.000000000 0.000000000 -92.465477
15 -1.0000 35.4530 5.620000000 0.000000000 2.810000000 -0.000000000 0.000000000 0.000000000 -92.465477
16 -1.0000 35.4530 8.430000000 2.810000000 2.810000000 0.000000000 -0.000000000 -0.000000000 -92.465477
17 1.0000 22.9897 11.240000000 0.000000000 0.000000000 -0.000000000 0.000000000 0.000000000 -92.465477
18 1.0000 22.9897 14.050000000 0.000000000 2.810000000 -0.000000000 0.000000000 0.000000000 -92.465477
19 1.0000 22.9897 11.240000000 2.810000000 2.810000000 -0.000000000 0.000000000 0.000000000 -92.465477
20 1.0000 22.9897 14.050000000 2.810000000 0.000000000 -0.000000000 0.000000000 0.000000000 -92.465477
21 -1.0000 35.4530 14.050000000 0.000000000 0.000000000 -0.000000000 0.000000000 0.000000000 -92.465477
22 -1.0000 35.4530 11.240000000 2.810000000 0.000000000 0.000000000 -0.000000000 0.000000000 -92.465477
23 -1.0000 35.4530 11.240000000 0.000000000 2.810000000 0.000000000 0.000000000 -0.000000000 -92.465477
24 -1.0000 35.4530 14.050000000 2.810000000 2.810000000 -0.000000000 -0.000000000 -0.000000000 -92.465477
25 1.0000 22.9897 16.860000000 0.000000000 0.000000000 0.000000000 0.000000000 0.000000000 -92.465477
26 1.0000 22.9897 19.670000000 0.000000000 2.810000000 -0.000000000 0.000000000 -0.000000000 -92.465477
27 1.0000 22.9897 16.860000000 2.810000000 2.810000000 0.000000000 0.000000000 -0.000000000 -92.465477
28 1.0000 22.9897 19.670000000 2.810000000 0.000000000 -0.000000000 -0.000000000 0.000000000 -92.465477
29 -1.0000 35.4530 19.670000000 0.000000000 0.000000000 -0.000000000 0.000000000 0.000000000 -92.465477
30 -1.0000 35.4530 16.860000000 2.810000000 0.000000000 0.000000000 -0.000000000 0.000000000 -92.465477
31 -1.0000 35.4530 16.860000000 0.000000000 2.810000000 0.000000000 0.000000000 -0.000000000 -92.465477
32 -1.0000 35.4530 19.670000000 2.810000000 2.810000000 -0.000000000 -0.000000000 0.000000000 -92.465477
33 1.0000 22.9897 22.480000000 0.000000000 0.000000000 0.000000000 0.000000000 0.000000000 -92.465477
34 1.0000 22.9897 25.290000000 0.000000000 2.810000000 0.000000000 0.000000000 -0.000000000 -92.465477
35 1.0000 22.9897 22.480000000 2.810000000 2.810000000 0.000000000 0.000000000 -0.000000000 -92.465477
36 1.0000 22.9897 25.290000000 2.810000000 0.000000000 0.000000000 0.000000000 0.000000000 -92.465477
37 -1.0000 35.4530 25.290000000 0.000000000 0.000000000 0.000000000 0.000000000 0.000000000 -92.465477
38 -1.0000 35.4530 22.480000000 2.810000000 0.000000000 -0.000000000 -0.000000000 0.000000000 -92.465477
39 -1.0000 35.4530 22.480000000 0.000000000 2.810000000 -0.000000000 0.000000000 0.000000000 -92.465477
40 -1.0000 35.4530 25.290000000 2.810000000 2.810000000 0.000000000 -0.000000000 0.000000000 -92.465477
41 1.0000 22.9897 28.100000000 0.000000000 0.000000000 -0.000000000 0.000000000 0.000000000 -92.465477
42 1.0000 22.9897 30.910000000 0.000000000 2.810000000 0.000000000 0.000000000 -0.000000000 -92.465477
43 1.0000 22.9897 28.100000000 2.810000000 2.810000000 -0.000000000 0.000000000 -0.000000000 -92.465477
44 1.0000 22.9897 30.910000000 2.810000000 0.000000000 0.000000000 0.000000000 0.000000000 -92.465477
45 -1.0000 35.4530 30.910000000 0.000000000 0.000000000 -0.000000000 0.000000000 0.000000000 -92.465477
46 -1.0000 35.4530 28.100000000 2.810000000 0.000000000 -0.000000000 -0.000000000 0.000000000 -92.465477
47 -1.0000 35.4530 28.100000000 0.000000000 2.810000000 -0.000000000 0.000000000 0.000000000 -92.465477
48 -1.0000 35.4530 30.910000000 2.810000000 2.810000000 -0.000000000 -0.000000000 -0.000000000 -92.465477
49 1.0000 22.9897 33.720000000 0.000000000 0.000000000 0.000000000 0.000000000 0.000000000 -92.465477
50 1.0000 22.9897 36.530000000 0.000000000 2.810000000 0.000000000 0.000000000 -0.000000000 -92.465477
51 1.0000 22.9897 33.720000000 2.810000000 2.810000000 0.000000000 0.000000000 -0.000000000 -92.465477
52 1.0000 22.9897 36.530000000 2.810000000 0.000000000 0.000000000 -0.000000000 0.000000000 -92.465477
53 -1.0000 35.4530 36.530000000 0.000000000 0.000000000 -0.000000000 0.000000000 0.000000000 -92.465477
54 -1.0000 35.4530 33.720000000 2.810000000 0.000000000 0.000000000 0.000000000 0.000000000 -92.465477
55 -1.0000 35.4530 33.720000000 0.000000000 2.810000000 0.000000000 0.000000000 0.000000000 -92.465477
56 -1.0000 35.4530 36.530000000 2.810000000 2.810000000 -0.000000000 0.000000000 0.000000000 -92.465477
57 1.0000 22.9897 39.340000000 0.000000000 0.000000000 -0.000000000 0.000000000 0.000000000 -92.465477
58 1.0000 22.9897 42.150000000 0.000000000 2.810000000 0.000000000 0.000000000 -0.000000000 -92.465477
59 1.0000 22.9897 39.340000000 2.810000000 2.810000000 -0.000000000 0.000000000 -0.000000000 -92.465477
60 1.0000 22.9897 42.150000000 2.810000000 0.000000000 0.000000000 0.000000000 0.000000000 -92.465477
61 -1.0000 35.4530 42.150000000 0.000000000 0.000000000 0.000000000 0.000000000 0.000000000 -92.465477
62 -1.0000 35.4530 39.340000000 2.810000000 0.000000000 -0.000000000 0.000000000 0.000000000 -92.465477
63 -1.0000 35.4530 39.340000000 0.000000000 2.810000000 -0.000000000 0.000000000 0.000000000 -92.465477
64 -1.0000 35.4530 42.150000000 2.810000000 2.810000000 0.000000000 -0.000000000 0.000000000 -92.465477
65 1.0000 22.9897 44.960000000 0.000000000 0.000000000 -0.000000000 0.000000000 0.000000000 -92.465477
66 1.0000 22.9897 47.770000000 0.000000000 2.810000000 -0.000000000 0.000000000 -0.000000000 -92.465477
67 1.0000 22.9897 44.960000000 2.810000000 2.810000000 -0.000000000 0.000000000 0.000000000 -92.465477
68 1.0000 22.9897 47.770000000 2.810000000 0.000000000 -0.000000000 -0.000000000 0.000000000 -92.465477
69 -1.0000 35.4530 47.770000000 0.000000000 0.000000000 -0.000000000 0.000000000 0.000000000 -92.465477
70 -1.0000 35.4530 44.960000000 2.810000000 0.000000000 0.000000000 -0.000000000 0.000000000 -92.465477
71 -1.0000 35.4530 44.960000000 0.000000000 2.810000000 0.000000000 0.000000000 -0.000000000 -92.465477
72 -1.0000 35.4530 47.770000000 2.810000000 2.810000000 -0.000000000 0.000000000 0.000000000 -92.465477
73 1.0000 22.9897 0.000000000 5.620000000 0.000000000 0.000000000 -0.000000000 0.000000000 -92.465477
74 1.0000 22.9897 2.810000000 5.620000000 2.810000000 0.000000000 -0.000000000 -0.000000000 -92.465477
75 1.0000 22.9897 0.000000000 8.430000000 2.810000000 0.000000000 0.000000000 -0.000000000 -92.465477
76 1.0000 22.9897 2.810000000 8.430000000 0.000000000 0.000000000 0.000000000 0.000000000 -92.465477
77 -1.0000 35.4530 2.810000000 5.620000000 0.000000000 -0.000000000 -0.000000000 0.000000000 -92.465477
78 -1.0000 35.4530 0.000000000 8.430000000 0.000000000 0.000000000 0.000000000 0.000000000 -92.465477
79 -1.0000 35.4530 0.000000000 5.620000000 2.810000000 0.000000000 -0.000000000 0.000000000 -92.465477
80 -1.0000 35.4530 2.810000000 8.430000000 2.810000000 -0.000000000 0.000000000 0.000000000 -92.465477
81 1.0000 22.9897 5.620000000 5.620000000 0.000000000 -0.000000000 -0.000000000 0.000000000 -92.465477
82 1.0000 22.9897 8.430000000 5.620000000 2.810000000 0.000000000 -0.000000000 -0.000000000 -92.465477
83 1.0000 22.9897 5.620000000 8.430000000 2.810000000 -0.000000000 0.000000000 -0.000000000 -92.465477
84 1.0000 22.9897 8.430000000 8.430000000 0.000000000 0.000000000 0.000000000 0.000000000 -92.465477
85 -1.0000 35.4530 8.430000000 5.620000000 0.000000000 0.000000000 -0.000000000 0.000000000 -92.465477
86 -1.0000 35.4530 5.620000000 8.430000000 0.000000000 -0.000000000 0.000000000 0.000000000 -92.465477
87 -1.0000 35.4530 5.620000000 5.620000000 2.810000000 -0.000000000 -0.000000000 0.000000000 -92.465477
88 -1.0000 35.4530 8.430000000 8.430000000 2.810000000 0.000000000 0.000000000 0.000000000 -92.465477
89 1.0000 22.9897 11.240000000 5.620000000 0.000000000 -0.000000000 -0.000000000 0.000000000 -92.465477
90 1.0000 22.9897 14.050000000 5.620000000 2.810000000 -0.000000000 -0.000000000 0.000000000 -92.465477
91 1.0000 22.9897 11.240000000 8.430000000 2.810000000 -0.000000000 0.000000000 -0.000000000 -92.465477
92 1.0000 22.9897 14.050000000 8.430000000 0.000000000 -0.000000000 0.000000000 0.000000000 -92.465477
93 -1.0000 35.4530 14.050000000 5.620000000 0.000000000 -0.000000000 -0.000000000 0.000000000 -92.465477
94 -1.0000 35.4530 11.240000000 8.430000000 0.000000000 0.000000000 0.000000000 0.000000000 -92.465477
95 -1.0000 35.4530 11.240000000 5.620000000 2.810000000 0.000000000 -0.000000000 -0.000000000 -92.465477
96 -1.0000 35.4530 14.050000000 8.430000000 2.810000000 -0.000000000 0.000000000 -0.000000000 -92.465477
97 1.0000 22.9897 16.860000000 5.620000000 0.000000000 0.000000000 -0.000000000 0.000000000 -92.465477
98 1.0000 22.9897 19.670000000 5.620000000 2.810000000 -0.000000000 -0.000000000 -0.000000000 -92.465477
99 1.0000 22.9897 16.860000000 8.430000000 2.810000000 0.000000000 0.000000000 0.000000000 -92.465477
100 1.0000 22.9897 19.670000000 8.430000000 0.000000000 -0.000000000 0.000000000 0.000000000 -92.465477
101 -1.0000 35.4530 19.670000000 5.620000000 0.000000000 -0.000000000 -0.000000000 0.000000000 -92.465477
102 -1.0000 35.4530 16.860000000 8.430000000 0.000000000 0.000000000 0.000000000 0.000000000 -92.465477
103 -1.0000 35.4530 16.860000000 5.620000000 2.810000000 0.000000000 -0.000000000 0.000000000 -92.465477
104 -1.0000 35.4530 19.670000000 8.430000000 2.810000000 -0.000000000 0.000000000 0.000000000 -92.465477
105 1.0000 22.9897 22.480000000 5.620000000 0.000000000 0.000000000 -0.000000000 0.000000000 -92.465477
106 1.0000 22.9897 25.290000000 5.620000000 2.810000000 0.000000000 -0.000000000 -0.000000000 -92.465477
107 1.0000 22.9897 22.480000000 8.430000000 2.810000000 0.000000000 0.000000000 -0.000000000 -92.465477
108 1.0000 22.9897 25.290000000 8.430000000 0.000000000 0.000000000 0.000000000 0.000000000 -92.465477
109 -1.0000 35.4530 25.290000000 5.620000000 0.000000000 0.000000000 -0.000000000 0.000000000 -92.465477
110 -1.0000 35.4530 22.480000000 8.430000000 0.000000000 -0.000000000 0.000000000 0.000000000 -92.465477
111 -1.0000 35.4530 22.480000000 5.620000000 2.810000000 -0.000000000 -0.000000000 0.000000000 -92.465477
112 -1.0000 35.4530 25.290000000 8.430000000 2.810000000 0.000000000 0.000000000 0.000000000 -92.465477
113 1.0000 22.9897 28.100000000 5.620000000 0.000000000 -0.000000000 -0.000000000 0.000000000 -92.465477
114 1.0000 22.9897 30.910000000 5.620000000 2.810000000 0.000000000 -0.000000000 0.000000000 -92.465477
115 1.0000 22.9897 28.100000000 8.430000000 2.810000000 -0.000000000 0.000000000 -0.000000000 -92.465477
116 1.0000 22.9897 30.910000000 8.430000000 0.000000000 -0.000000000 0.000000000 0.000000000 -92.465477
117 -1.0000 35.4530 30.910000000 5.620000000 0.000000000 -0.000000000 -0.000000000 0.000000000 -92.465477
118 -1.0000 35.4530 28.100000000 8.430000000 0.000000000 -0.000000000 0.000000000 0.000000000 -92.465477
119 -1.0000 35.4530 28.100000000 5.620000000 2.810000000 -0.000000000 -0.000000000 0.000000000 -92.465477
120 -1.0000 35.4530 30.910000000 8.430000000 2.810000000 -0.000000000 0.000000000 -0.000000000 -92.465477
121 1.0000 22.9897 33.720000000 5.620000000 0.000000000 0.000000000 -0.000000000 0.000000000 -92.465477
122 1.0000 22.9897 36.530000000 5.620000000 2.810000000 0.000000000 -0.000000000 0.000000000 -92.465477
123 1.0000 22.9897 33.720000000 8.430000000 2.810000000 0.000000000 0.000000000 0.000000000 -92.465477
124 1.0000 22.9897 36.530000000 8.430000000 0.000000000 0.000000000 0.000000000 0.000000000 -92.465477
125 -1.0000 35.4530 36.530000000 5.620000000 0.000000000 -0.000000000 -0.000000000 0.000000000 -92.465477
126 -1.0000 35.4530 33.720000000 8.430000000 0.000000000 0.000000000 0.000000000 0.000000000 -92.465477
127 -1.0000 35.4530 33.720000000 5.620000000 2.810000000 0.000000000 -0.000000000 -0.000000000 -92.465477
128 -1.0000 35.4530 36.530000000 8.430000000 2.810000000 0.000000000 0.000000000 -0.000000000 -92.465477
129 1.0000 22.9897 39.340000000 5.620000000 0.000000000 -0.000000000 -0.000000000 0.000000000 -92.465477
130 1.0000 22.9897 42.150000000 5.620000000 2.810000000 0.000000000 -0.000000000 -0.000000000 -92.465477
131 1.0000 22.9897 39.340000000 8.430000000 2.810000000 -0.000000000 0.000000000 0.000000000 -92.465477
132 1.0000 22.9897 42.150000000 8.430000000 0.000000000 0.000000000 0.000000000 0.000000000 -92.465477
133 -1.0000 35.4530 42.150000000 5.620000000 0.000000000 0.000000000 -0.000000000 0.000000000 -92.465477
134 -1.0000 35.4530 39.340000000 8.430000000 0.000000000 -0.000000000 0.000000000 0.000000000 -92.465477
135 -1.0000 35.4530 39.340000000 5.620000000 2.810000000 -0.000000000 -0.000000000 -0.000000000 -92.465477
136 -1.0000 35.4530 42.150000000 8.430000000 2.810000000 0.000000000 0.000000000 -0.000000000 -92.465477
137 1.0000 22.9897 44.960000000 5.620000000 0.000000000 -0.000000000 -0.000000000 0.000000000 -92.465477
138 1.0000 22.9897 47.770000000 5.620000000 2.810000000 -0.000000000 -0.000000000 -0.000000000 -92.465477
139 1.0000 22.9897 44.960000000 8.430000000 2.810000000 -0.000000000 0.000000000 0.000000000 -92.465477
140 1.0000 22.9897 47.770000000 8.430000000 0.000000000 -0.000000000 0.000000000 0.000000000 -92.465477
141 -1.0000 35.4530 47.770000000 5.620000000 0.000000000 -0.000000000 -0.000000000 0.000000000 -92.465477
142 -1.0000 35.4530 44.960000000 8.430000000 0.000000000 0.000000000 0.000000000 0.000000000 -92.465477
143 -1.0000 35.4530 44.960000000 5.620000000 2.810000000 0.000000000 -0.000000000 0.000000000 -92.465477
144 -1.0000 35.4530 47.770000000 8.430000000 2.810000000 -0.000000000 0.000000000 -0.000000000 -92.465477
145 1.0000 22.9897 0.000000000 11.240000000 0.000000000 0.000000000 0.000000000 0.000000000 -92.465477
146 1.0000 22.9897 2.810000000 11.240000000 2.810000000 0.000000000 -0.000000000 -0.000000000 -92.465477
147 1.0000 22.9897 0.000000000 14.050000000 2.810000000 0.000000000 -0.000000000 -0.000000000 -92.465477
148 1.0000 22.9897 2.810000000 14.050000000 0.000000000 -0.000000000 -0.000000000 0.000000000 -92.465477
149 -1.0000 35.4530 2.810000000 11.240000000 0.000000000 -0.000000000 0.000000000 0.000000000 -92.465477
150 -1.0000 35.4530 0.000000000 14.050000000 0.000000000 0.000000000 -0.000000000 0.000000000 -92.465477
151 -1.0000 35.4530 0.000000000 11.240000000 2.810000000 0.000000000 0.000000000 0.000000000 -92.465477
152 -1.0000 35.4530 2.810000000 14.050000000 2.810000000 -0.000000000 -0.000000000 0.000000000 -92.465477
153 1.0000 22.9897 5.620000000 11.240000000 0.000000000 -0.000000000 -0.000000000 0.000000000 -92.465477
154 1.0000 22.9897 8.430000000 11.240000000 2.810000000 0.000000000 -0.000000000 0.000000000 -92.465477
155 1.0000 22.9897 5.620000000 14.050000000 2.810000000 -0.000000000 -0.000000000 0.000000000 -92.465477
156 1.0000 22.9897 8.430000000 14.050000000 0.000000000 0.000000000 -0.000000000 0.000000000 -92.465477
157 -1.0000 35.4530 8.430000000 11.240000000 0.000000000 0.000000000 0.000000000 0.000000000 -92.465477
158 -1.0000 35.4530 5.620000000 14.050000000 0.000000000 -0.000000000 -0.000000000 0.000000000 -92.465477
159 -1.0000 35.4530 5.620000000 11.240000000 2.810000000 -0.000000000 0.000000000 0.000000000 -92.465477
160 -1.0000 35.4530 8.430000000 14.050000000 2.810000000 0.000000000 -0.000000000 -0.000000000 -92.465477
161 1.0000 22.9897 11.240000000 11.240000000 0.000000000 -0.000000000 -0.000000000 0.000000000 -92.465477
162 1.0000 22.9897 14.050000000 11.240000000 2.810000000 -0.000000000 -0.000000000 0.000000000 -92.465477
163 1.0000 22.9897 11.240000000 14.050000000 2.810000000 0.000000000 -0.000000000 -0.000000000 -92.465477
164 1.0000 22.9897 14.050000000 14.050000000 0.000000000 -0.000000000 -0.000000000 0.000000000 -92.465477
165 -1.0000 35.4530 14.050000000 11.240000000 0.000000000 -0.000000000 0.000000000 0.000000000 -92.465477
166 -1.0000 35.4530 11.240000000 14.050000000 0.000000000 -0.000000000 -0.000000000 0.000000000 -92.465477
167 -1.0000 35.4530 11.240000000 11.240000000 2.810000000 0.000000000 0.000000000 0.000000000 -92.465477
168 -1.0000 35.4530 14.050000000 14.050000000 2.810000000 -0.000000000 -0.000000000 -0.000000000 -92.465477
169 1.0000 22.9897 16.860000000 11.240000000 0.000000000 0.000000000 -0.000000000 0.000000000 -92.465477
170 1.0000 22.9897 19.670000000 11.240000000 2.810000000 -0.000000000 -0.000000000 -0.000000000 -92.465477
171 1.0000 22.9897 16.860000000 14.050000000 2.810000000 0.000000000 -0.000000000 0.000000000 -92.465477
172 1.0000 22.9897 19.670000000 14.050000000 0.000000000 -0.000000000 -0.000000000 0.000000000 -92.465477
173 -1.0000 35.4530 19.670000000 11.240000000 0.000000000 -0.000000000 0.000000000 0.000000000 -92.465477
174 -1.0000 35.4530 16.860000000 14.050000000 0.000000000 0.000000000 -0.000000000 0.000000000 -92.465477
175 -1.0000 35.4530 16.860000000 11.240000000 2.810000000 0.000000000 0.000000000 -0.000000000 -92.465477
176 -1.0000 35.4530 19.670000000 14.050000000 2.810000000 -0.000000000 -0.000000000 -0.000000000 -92.465477
177 1.0000 22.9897 22.480000000 11.240000000 0.000000000 0.000000000 -0.000000000 0.000000000 -92.465477
178 1.0000 22.9897 25.290000000 11.240000000 2.810000000 0.000000000 -0.000000000 0.000000000 -92.465477
179 1.0000 22.9897 22.480000000 14.050000000 2.810000000 0.000000000 -0.000000000 0.000000000 -92.465477
180 1.0000 22.9897 25.290000000 14.050000000 0.000000000 0.000000000 -0.000000000 0.000000000 -92.465477
181 -1.0000 35.4530 25.290000000 11.240000000 0.000000000 0.000000000 0.000000000 0.000000000 -92.465477
182 -1.0000 35.4530 22.480000000 14.050000000 0.000000000 -0.000000000 -0.000000000 0.000000000 -92.465477
183 -1.0000 35.4530 22.480000000 11.240000000 2.810000000 -0.000000000 0.000000000 0.000000000 -92.465477
184 -1.0000 35.4530 25.290000000 14.050000000 2.810000000 0.000000000 -0.000000000 -0.000000000 -92.465477
185 1.0000 22.9897 28.100000000 11.240000000 0.000000000 -0.000000000 -0.000000000 0.000000000 -92.465477
186 1.0000 22.9897 30.910000000 11.240000000 2.810000000 0.000000000 0.000000000 0.000000000 -92.465477
187 1.0000 22.9897 28.100000000 14.050000000 2.810000000 -0.000000000 -0.000000000 0.000000000 -92.465477
188 1.0000 22.9897 30.910000000 14.050000000 0.000000000 0.000000000 -0.000000000 0.000000000 -92.465477
189 -1.0000 35.4530 30.910000000 11.240000000 0.000000000 -0.000000000 0.000000000 0.000000000 -92.465477
190 -1.0000 35.4530 28.100000000 14.050000000 0.000000000 -0.000000000 -0.000000000 0.000000000 -92.465477
191 -1.0000 35.4530 28.100000000 11.240000000 2.810000000 -0.000000000 -0.000000000 -0.000000000 -92.465477
192 -1.0000 35.4530 30.910000000 14.050000000 2.810000000 -0.000000000 -0.000000000 -0.000000000 -92.465477
193 1.0000 22.9897 33.720000000 11.240000000 0.000000000 0.000000000 0.000000000 0.000000000 -92.465477
194 1.0000 22.9897 36.530000000 11.240000000 2.810000000 -0.000000000 0.000000000 0.000000000 -92.465477
195 1.0000 22.9897 33.720000000 14.050000000 2.810000000 0.000000000 -0.000000000 0.000000000 -92.465477
196 1.0000 22.9897 36.530000000 14.050000000 0.000000000 0.000000000 -0.000000000 0.000000000 -92.465477
197 -1.0000 35.4530 36.530000000 11.240000000 0.000000000 -0.000000000 -0.000000000 0.000000000 -92.465477
198 -1.0000 35.4530 33.720000000 14.050000000 0.000000000 0.000000000 -0.000000000 0.000000000 -92.465477
199 -1.0000 35.4530 33.720000000 11.240000000 2.810000000 0.000000000 -0.000000000 -0.000000000 -92.465477
200 -1.0000 35.4530 36.530000000 14.050000000 2.810000000 0.000000000 -0.000000000 -0.000000000 -92.465477
201 1.0000 22.9897 39.340000000 11.240000000 0.000000000 -0.000000000 -0.000000000 0.000000000 -92.465477
202 1.0000 22.9897 42.150000000 11.240000000 2.810000000 0.000000000 0.000000000 0.000000000 -92.465477
203 1.0000 22.9897 39.340000000 14.050000000 2.810000000 -0.000000000 -0.000000000 0.000000000 -92.465477
204 1.0000 22.9897 42.150000000 14.050000000 0.000000000 0.000000000 -0.000000000 0.000000000 -92.465477
205 -1.0000 35.4530 42.150000000 11.240000000 0.000000000 0.000000000 -0.000000000 0.000000000 -92.465477
206 -1.0000 35.4530 39.340000000 14.050000000 0.000000000 -0.000000000 -0.000000000 0.000000000 -92.465477
207 -1.0000 35.4530 39.340000000 11.240000000 2.810000000 -0.000000000 -0.000000000 -0.000000000 -92.465477
208 -1.0000 35.4530 42.150000000 14.050000000 2.810000000 0.000000000 -0.000000000 -0.000000000 -92.465477
209 1.0000 22.9897 44.960000000 11.240000000 0.000000000 -0.000000000 0.000000000 0.000000000 -92.465477
210 1.0000 22.9897 47.770000000 11.240000000 2.810000000 -0.000000000 -0.000000000 0.000000000 -92.465477
211 1.0000 22.9897 44.960000000 14.050000000 2.810000000 -0.000000000 -0.000000000 -0.000000000 -92.465477
212 1.0000 22.9897 47.770000000 14.050000000 0.000000000 -0.000000000 -0.000000000 0.000000000 -92.465477
213 -1.0000 35.4530 47.770000000 11.240000000 0.000000000 -0.000000000 -0.000000000 0.000000000 -92.465477
214 -1.0000 35.4530 44.960000000 14.050000000 0.000000000 0.000000000 -0.000000000 0.000000000 -92.465477
215 -1.0000 35.4530 44.960000000 11.240000000 2.810000000 0.000000000 -0.000000000 -0.000000000 -92.465477
216 -1.0000 35.4530 47.770000000 14.050000000 2.810000000 -0.000000000 -0.000000000 0.000000000 -92.465477
217 1.0000 22.9897 0.000000000 16.860000000 0.000000000 0.000000000 0.000000000 0.000000000 -92.465477
218 1.0000 22.9897 2.810000000 16.860000000 2.810000000 -0.000000000 0.000000000 0.000000000 -92.465477
219 1.0000 22.9897 0.000000000 19.670000000 2.810000000 0.000000000 -0.000000000 -0.000000000 -92.465477
220 1.0000 22.9897 2.810000000 19.670000000 0.000000000 -0.000000000 -0.000000000 0.000000000 -92.465477
221 -1.0000 35.4530 2.810000000 16.860000000 0.000000000 0.000000000 0.000000000 0.000000000 -92.465477
222 -1.0000 35.4530 0.000000000 19.670000000 0.000000000 0.000000000 -0.000000000 0.000000000 -92.465477
223 -1.0000 35.4530 0.000000000 16.860000000 2.810000000 0.000000000 0.000000000 0.000000000 -92.465477
224 -1.0000 35.4530 2.810000000 19.670000000 2.810000000 0.000000000 -0.000000000 -0.000000000 -92.465477
225 1.0000 22.9897 5.620000000 16.860000000 0.000000000 -0.000000000 0.000000000 0.000000000 -92.465477
226 1.0000 22.9897 8.430000000 16.860000000 2.810000000 0.000000000 0.000000000 0.000000000 -92.465477
227 1.0000 22.9897 5.620000000 19.670000000 2.810000000 -0.000000000 -0.000000000 0.000000000 -92.465477
228 1.0000 22.9897 8.430000000 19.670000000 0.000000000 0.000000000 -0.000000000 0.000000000 -92.465477
229 -1.0000 35.4530 8.430000000 16.860000000 0.000000000 0.000000000 0.000000000 0.000000000 -92.465477
230 -1.0000 35.4530 5.620000000 19.670000000 0.000000000 -0.000000000 -0.000000000 0.000000000 -92.465477
231 -1.0000 35.4530 5.620000000 16.860000000 2.810000000 -0.000000000 0.000000000 -0.000000000 -92.465477
232 -1.0000 35.4530 8.430000000 19.670000000 2.810000000 0.000000000 -0.000000000 -0.000000000 -92.465477
233 1.0000 22.9897 11.240000000 16.860000000 0.000000000 0.000000000 0.000000000 0.000000000 -92.465477
234 1.0000 22.9897 14.050000000 16.860000000 2.810000000 -0.000000000 0.000000000 0.000000000 -92.465477
235 1.0000 22.9897 11.240000000 19.670000000 2.810000000 0.000000000 -0.000000000 0.000000000 -92.465477
236 1.0000 22.9897 14.050000000 19.670000000 0.000000000 -0.000000000 -0.000000000 0.000000000 -92.465477
237 -1.0000 35.4530 14.050000000 16.860000000 0.000000000 -0.000000000 0.000000000 0.000000000 -92.465477
238 -1.0000 35.4530 11.240000000 19.670000000 0.000000000 -0.000000000 -0.000000000 0.000000000 -92.465477
239 -1.0000 35.4530 11.240000000 16.860000000 2.810000000 -0.000000000 0.000000000 -0.000000000 -92.465477
240 -1.0000 35.4530 14.050000000 19.670000000 2.810000000 -0.000000000 -0.000000000 0.000000000 -92.465477
241 1.0000 22.9897 16.860000000 16.860000000 0.000000000 0.000000000 0.000000000 0.000000000 -92.465477
242 1.0000 22.9897 19.670000000 16.860000000 2.810000000 -0.000000000 0.000000000 0.000000000 -92.465477
243 1.0000 22.9897 16.860000000 19.670000000 2.810000000 0.000000000 -0.000000000 -0.000000000 -92.465477
244 1.0000 22.9897 19.670000000 19.670000000 0.000000000 -0.000000000 -0.000000000 0.000000000 -92.465477
245 -1.0000 35.4530 19.670000000 16.860000000 0.000000000 -0.000000000 0.000000000 0.000000000 -92.465477
246 -1.0000 35.4530 16.860000000 19.670000000 0.000000000 0.000000000 -0.000000000 0.000000000 -92.465477
247 -1.0000 35.4530 16.860000000 16.860000000 2.810000000 0.000000000 0.000000000 -0.000000000 -92.465477
248 -1.0000 35.4530 19.670000000 19.670000000 2.810000000 -0.000000000 -0.000000000 -0.000000000 -92.465477
249 1.0000 22.9897 22.480000000 16.860000000 0.000000000 0.000000000 0.000000000 0.000000000 -92.465477
250 1.0000 22.9897 25.290000000 16.860000000 2.810000000 0.000000000 0.000000000 0.000000000 -92.465477
251 1.0000 22.9897 22.480000000 19.670000000 2.810000000 0.000000000 -0.000000000 0.000000000 -92.465477
252 1.0000 22.9897 25.290000000 19.670000000 0.000000000 0.000000000 -0.000000000 0.000000000 -92.465477
253 -1.0000 35.4530 25.290000000 16.860000000 0.000000000 0.000000000 0.000000000 0.000000000 -92.465477
254 -1.0000 35.4530 22.480000000 19.670000000 0.000000000 -0.000000000 -0.000000000 0.000000000 -92.465477
255 -1.0000 35.4530 22.480000000 16.860000000 2.810000000 -0.000000000 0.000000000 -0.000000000 -92.465477
256 -1.0000 35.4530 25.290000000 19.670000000 2.810000000 0.000000000 -0.000000000 -0.000000000 -92.465477
257 1.0000 22.9897 28.100000000 16.860000000 0.000000000 -0.000000000 0.000000000 0.000000000 -92.465477
258 1.0000 22.9897 30.910000000 16.860000000 2.810000000 0.000000000 0.000000000 0.000000000 -92.465477
259 1.0000 22.9897 28.100000000 19.670000000 2.810000000 -0.000000000 -0.000000000 0.000000000 -92.465477
260 1.0000 22.9897 30.910000000 19.670000000 0.000000000 0.000000000 -0.000000000 0.000000000 -92.465477
261 -1.0000 35.4530 30.910000000 16.860000000 0.000000000 -0.000000000 0.000000000 0.000000000 -92.465477
262 -1.0000 35.4530 28.100000000 19.670000000 0.000000000 -0.000000000 -0.000000000 0.000000000 -92.465477
263 -1.0000 35.4530 28.100000000 16.860000000 2.810000000 -0.000000000 0.000000000 -0.000000000 -92.465477
264 -1.0000 35.4530 30.910000000 19.670000000 2.810000000 -0.000000000 -0.000000000 -0.000000000 -92.465477
265 1.0000 22.9897 33.720000000 16.860000000 0.000000000 0.000000000 0.000000000 0.000000000 -92.465477
266 1.0000 22.9897 36.530000000 16.860000000 2.810000000 0.000000000 0.000000000 0.000000000 -92.465477
267 1.0000 22.9897 33.720000000 19.670000000 2.810000000 0.000000000 -0.000000000 0.000000000 -92.465477
268 1.0000 22.9897 36.530000000 19.670000000 0.000000000 0.000000000 -0.000000000 0.000000000 -92.465477
269 -1.0000 35.4530 36.530000000 16.860000000 0.000000000 -0.000000000 0.000000000 0.000000000 -92.465477
270 -1.0000 35.4530 33.720000000 19.670000000 0.000000000 0.000000000 -0.000000000 0.000000000 -92.465477
271 -1.0000 35.4530 33.720000000 16.860000000 2.810000000 0.000000000 0.000000000 -0.000000000 -92.465477
272 -1.0000 35.4530 36.530000000 19.670000000 2.810000000 0.000000000 -0.000000000 -0.000000000 -92.465477
273 1.0000 22.9897 39.340000000 16.860000000 0.000000000 -0.000000000 0.000000000 0.000000000 -92.465477
274 1.0000 22.9897 42.150000000 16.860000000 2.810000000 0.000000000 0.000000000 -0.000000000 -92.465477
275 1.0000 22.9897 39.340000000 19.670000000 2.810000000 -0.000000000 -0.000000000 -0.000000000 -92.465477
276 1.0000 22.9897 42.150000000 19.670000000 0.000000000 0.000000000 -0.000000000 0.000000000 -92.465477
277 -1.0000 35.4530 42.150000000 16.860000000 0.000000000 0.000000000 0.000000000 0.000000000 -92.465477
278 -1.0000 35.4530 39.340000000 19.670000000 0.000000000 -0.000000000 -0.000000000 0.000000000 -92.465477
279 -1.0000 35.4530 39.340000000 16.860000000 2.810000000 -0.000000000 0.000000000 -0.000000000 -92.465477
280 -1.0000 35.4530 42.150000000 19.670000000 2.810000000 0.000000000 -0.000000000 0.000000000 -92.465477
281 1.0000 22.9897 44.960000000 16.860000000 0.000000000 -0.000000000 0.000000000 0.000000000 -92.465477
282 1.0000 22.9897 47.770000000 16.860000000 2.810000000 -0.000000000 0.000000000 -0.000000000 -92.465477
283 1.0000 22.9897 44.960000000 19.670000000 2.810000000 -0.000000000 -0.000000000 -0.000000000 -92.465477
284 1.0000 22.9897 47.770000000 19.670000000 0.000000000 -0.000000000 -0.000000000 0.000000000 -92.465477