LAMMPS (28 Mar 2023 - Development)
OMP_NUM_THREADS environment is not set. Defaulting to 1 thread. (src/comm.cpp:98)
  using 1 OpenMP thread(s) per MPI task
# LAMMPS input script for NaCl crystal simulation with real units

units real
dimension 3
boundary p p p

# Atom definition
atom_style charge
read_data salt9UC.positions
Reading data file ...
  orthogonal box = (0 0 0) to (50.58 50.58 50.58)
  2 by 2 by 2 MPI processor grid
  reading atoms ...
  5832 atoms
  reading velocities ...
  5832 velocities
  read_data CPU = 0.048 seconds

# Define groups
group Na type 1
2916 atoms in group Na
group Cl type 2
2916 atoms in group Cl

# Set up pair style and coefficients
pair_style lj/cut/coul/long 7.0 10.0
kspace_style ewald 1e-5

#THIS IS NOT REAL JUST FOR SIMPLICITY IN PROJECT
pair_coeff 1 1 0.1 3.492
pair_coeff 1 2 0.1 3.492
pair_coeff 2 2 0.1 3.492


timestep 2.0

compute 1 all pe/atom
compute 2 all pair lj/cut/coul/long ecoul
compute 3 all pair lj/cut/coul/long evdwl
compute 4 all pe
variable elong equal elong


variable T equal 300
velocity all create ${T} 31454 dist gaussian mom yes
velocity all create 300 31454 dist gaussian mom yes


# Run simulation
fix 1 all nve
dump data all custom 100 dump.atom id q mass x y z fx fy fz c_1
dump_modify data format line "%d %.4f %.4f %.9f %.9f %.9f %.9f %.9f %.9f %9f"
fix eng_print all print 100 "$(c_2) $(v_elong) $(c_3) $(c_4)" file energy_breakdown.txt
dump_modify data sort id
run 1000
Ewald initialization ...
  using 12-bit tables for long-range coulomb (src/kspace.cpp:342)
  G vector (1/distance) = 0.30830185
  estimated absolute RMS force accuracy = 0.0035809717
  estimated relative force accuracy = 1.078399e-05
  KSpace vectors: actual max1d max3d = 8538 16 17968
                  kxmax kymax kzmax  = 16 16 16
Generated 0 of 1 mixed pair_coeff terms from geometric mixing rule
Neighbor list info ...
  update: every = 1 steps, delay = 0 steps, check = yes
  max neighbors/atom: 2000, page size: 100000
  master list distance cutoff = 12
  ghost atom cutoff = 12
  binsize = 6, bins = 9 9 9
  1 neighbor lists, perpetual/occasional/extra = 1 0 0
  (1) pair lj/cut/coul/long, perpetual
      attributes: half, newton on
      pair build: half/bin/atomonly/newton
      stencil: half/bin/3d
      bin: standard
-265397.89108229178237 -336791.84290734102251 62931.071341351955198 -539258.66264828108251
Per MPI rank memory allocation (min/avg/max) = 32.76 | 32.76 | 32.77 Mbytes
   Step          Temp          E_pair         E_mol          TotEng         Press     
         0   300           -539258.66      0             -534044.33      66173.259    
-264764.35117639543023 -336699.06576378201135 64792.368768421612913 -536671.0481717560906
-264687.28054811421316 -336693.14303757197922 64855.353406813956099 -536525.07017887197435
-264676.19651843677275 -336688.69526392198168 64853.117246971734858 -536511.77453538659029
-264648.62757399800466 -336691.20754003198817 64622.331695856919396 -536717.50341817317531
-264713.60819169750903 -336691.46822754002642 64772.435914369358215 -536632.64050486776978
-264723.59049016435165 -336686.40782504499657 64868.39475764229428 -536541.60355756711215
-264656.23051966691855 -336685.16205258201808 64828.592085965545266 -536512.80048628337681
-264614.51218967256136 -336686.62134158000117 64753.260016249121691 -536547.87351500394288
-264723.8731533800019 -336688.85235205700155 64859.463870590305305 -536553.26163484621793
-264714.08015571744181 -336691.53422227397095 64778.332016671716701 -536627.28236132021993
      1000   151.66533     -536627.28      0             -533991.17      69384.329    
Loop time of 64.946 on 8 procs for 1000 steps with 5832 atoms

Performance: 2.661 ns/day, 9.020 hours/ns, 15.397 timesteps/s, 89.798 katom-step/s
99.9% CPU use with 8 MPI tasks x 1 OpenMP threads

MPI task timing breakdown:
Section |  min time  |  avg time  |  max time  |%varavg| %total
---------------------------------------------------------------
Pair    | 1.8137     | 1.8771     | 1.9569     |   3.1 |  2.89
Kspace  | 51.502     | 52.705     | 54.68      |  15.6 | 81.15
Neigh   | 0          | 0          | 0          |   0.0 |  0.00
Comm    | 8.1376     | 10.192     | 11.418     |  36.6 | 15.69
Output  | 0.093708   | 0.11116    | 0.12478    |   3.3 |  0.17
Modify  | 0.011231   | 0.012559   | 0.018654   |   2.1 |  0.02
Other   |            | 0.04765    |            |       |  0.07

Nlocal:            729 ave         729 max         729 min
Histogram: 8 0 0 0 0 0 0 0 0 0
Nghost:           5103 ave        5103 max        5103 min
Histogram: 8 0 0 0 0 0 0 0 0 0
Neighs:         123930 ave      123930 max      123930 min
Histogram: 8 0 0 0 0 0 0 0 0 0

Total # of neighbors = 991440
Ave neighs/atom = 170
Neighbor list builds = 0
Dangerous builds = 0
Total wall time: 0:01:05
