ITEM: TIMESTEP
0
ITEM: NUMBER OF ATOMS
216
ITEM: BOX BOUNDS pp pp pp
0.0000000000000000e+00 1.6859999999999999e+01
0.0000000000000000e+00 1.6859999999999999e+01
0.0000000000000000e+00 1.6859999999999999e+01
ITEM: ATOMS id q mass x y z fx fy fz c_1
1 1.0000 22.9897 0.000000000 0.000000000 0.000000000 0.000000000 0.000000000 0.000000000 10.790650
2 1.0000 22.9897 2.810000000 0.000000000 2.810000000 0.000000000 0.000000000 -0.000000000 10.790650
3 1.0000 22.9897 0.000000000 2.810000000 2.810000000 0.000000000 0.000000000 0.000000000 10.790650
4 1.0000 22.9897 2.810000000 2.810000000 0.000000000 0.000000000 -0.000000000 0.000000000 10.790650
5 -1.0000 35.4530 2.810000000 0.000000000 0.000000000 -0.000000000 0.000000000 0.000000000 10.790650
6 -1.0000 35.4530 0.000000000 2.810000000 0.000000000 0.000000000 0.000000000 0.000000000 10.790650
7 -1.0000 35.4530 0.000000000 0.000000000 2.810000000 0.000000000 0.000000000 0.000000000 10.790650
8 -1.0000 35.4530 2.810000000 2.810000000 2.810000000 -0.000000000 -0.000000000 -0.000000000 10.790650
9 1.0000 22.9897 5.620000000 0.000000000 0.000000000 -0.000000000 0.000000000 0.000000000 10.790650
10 1.0000 22.9897 8.430000000 0.000000000 2.810000000 0.000000000 0.000000000 -0.000000000 10.790650
11 1.0000 22.9897 5.620000000 2.810000000 2.810000000 -0.000000000 0.000000000 0.000000000 10.790650
12 1.0000 22.9897 8.430000000 2.810000000 0.000000000 0.000000000 -0.000000000 0.000000000 10.790650
13 -1.0000 35.4530 8.430000000 0.000000000 0.000000000 0.000000000 0.000000000 0.000000000 10.790650
14 -1.0000 35.4530 5.620000000 2.810000000 0.000000000 -0.000000000 -0.000000000 0.000000000 10.790650
15 -1.0000 35.4530 5.620000000 0.000000000 2.810000000 -0.000000000 0.000000000 -0.000000000 10.790650
16 -1.0000 35.4530 8.430000000 2.810000000 2.810000000 0.000000000 -0.000000000 -0.000000000 10.790650
17 1.0000 22.9897 11.240000000 0.000000000 0.000000000 -0.000000000 0.000000000 0.000000000 10.790650
18 1.0000 22.9897 14.050000000 0.000000000 2.810000000 -0.000000000 0.000000000 -0.000000000 10.790650
19 1.0000 22.9897 11.240000000 2.810000000 2.810000000 0.000000000 0.000000000 0.000000000 10.790650
20 1.0000 22.9897 14.050000000 2.810000000 0.000000000 -0.000000000 -0.000000000 0.000000000 10.790650
21 -1.0000 35.4530 14.050000000 0.000000000 0.000000000 -0.000000000 0.000000000 0.000000000 10.790650
22 -1.0000 35.4530 11.240000000 2.810000000 0.000000000 -0.000000000 -0.000000000 0.000000000 10.790650
23 -1.0000 35.4530 11.240000000 0.000000000 2.810000000 -0.000000000 0.000000000 -0.000000000 10.790650
24 -1.0000 35.4530 14.050000000 2.810000000 2.810000000 -0.000000000 -0.000000000 -0.000000000 10.790650
25 1.0000 22.9897 0.000000000 5.620000000 0.000000000 0.000000000 -0.000000000 0.000000000 10.790650
26 1.0000 22.9897 2.810000000 5.620000000 2.810000000 0.000000000 -0.000000000 -0.000000000 10.790650
27 1.0000 22.9897 0.000000000 8.430000000 2.810000000 0.000000000 0.000000000 0.000000000 10.790650
28 1.0000 22.9897 2.810000000 8.430000000 0.000000000 0.000000000 0.000000000 0.000000000 10.790650
29 -1.0000 35.4530 2.810000000 5.620000000 0.000000000 -0.000000000 -0.000000000 0.000000000 10.790650
30 -1.0000 35.4530 0.000000000 8.430000000 0.000000000 0.000000000 0.000000000 0.000000000 10.790650
31 -1.0000 35.4530 0.000000000 5.620000000 2.810000000 0.000000000 -0.000000000 0.000000000 10.790650
32 -1.0000 35.4530 2.810000000 8.430000000 2.810000000 -0.000000000 0.000000000 0.000000000 10.790650
33 1.0000 22.9897 5.620000000 5.620000000 0.000000000 -0.000000000 -0.000000000 0.000000000 10.790650
34 1.0000 22.9897 8.430000000 5.620000000 2.810000000 0.000000000 -0.000000000 0.000000000 10.790650
35 1.0000 22.9897 5.620000000 8.430000000 2.810000000 -0.000000000 0.000000000 0.000000000 10.790650
36 1.0000 22.9897 8.430000000 8.430000000 0.000000000 0.000000000 0.000000000 0.000000000 10.790650
37 -1.0000 35.4530 8.430000000 5.620000000 0.000000000 0.000000000 -0.000000000 0.000000000 10.790650
38 -1.0000 35.4530 5.620000000 8.430000000 0.000000000 -0.000000000 0.000000000 0.000000000 10.790650
39 -1.0000 35.4530 5.620000000 5.620000000 2.810000000 -0.000000000 -0.000000000 0.000000000 10.790650
40 -1.0000 35.4530 8.430000000 8.430000000 2.810000000 0.000000000 0.000000000 0.000000000 10.790650
41 1.0000 22.9897 11.240000000 5.620000000 0.000000000 0.000000000 -0.000000000 0.000000000 10.790650
42 1.0000 22.9897 14.050000000 5.620000000 2.810000000 -0.000000000 -0.000000000 -0.000000000 10.790650
43 1.0000 22.9897 11.240000000 8.430000000 2.810000000 0.000000000 0.000000000 0.000000000 10.790650
44 1.0000 22.9897 14.050000000 8.430000000 0.000000000 -0.000000000 0.000000000 0.000000000 10.790650
45 -1.0000 35.4530 14.050000000 5.620000000 0.000000000 -0.000000000 -0.000000000 0.000000000 10.790650
46 -1.0000 35.4530 11.240000000 8.430000000 0.000000000 -0.000000000 0.000000000 0.000000000 10.790650
47 -1.0000 35.4530 11.240000000 5.620000000 2.810000000 -0.000000000 -0.000000000 -0.000000000 10.790650
48 -1.0000 35.4530 14.050000000 8.430000000 2.810000000 -0.000000000 0.000000000 -0.000000000 10.790650
49 1.0000 22.9897 0.000000000 11.240000000 0.000000000 0.000000000 0.000000000 0.000000000 10.790650
50 1.0000 22.9897 2.810000000 11.240000000 2.810000000 0.000000000 0.000000000 -0.000000000 10.790650
51 1.0000 22.9897 0.000000000 14.050000000 2.810000000 0.000000000 -0.000000000 0.000000000 10.790650
52 1.0000 22.9897 2.810000000 14.050000000 0.000000000 0.000000000 -0.000000000 0.000000000 10.790650
53 -1.0000 35.4530 2.810000000 11.240000000 0.000000000 -0.000000000 0.000000000 0.000000000 10.790650
54 -1.0000 35.4530 0.000000000 14.050000000 0.000000000 0.000000000 -0.000000000 0.000000000 10.790650
55 -1.0000 35.4530 0.000000000 11.240000000 2.810000000 0.000000000 0.000000000 0.000000000 10.790650
56 -1.0000 35.4530 2.810000000 14.050000000 2.810000000 -0.000000000 -0.000000000 0.000000000 10.790650
57 1.0000 22.9897 5.620000000 11.240000000 0.000000000 -0.000000000 0.000000000 0.000000000 10.790650
58 1.0000 22.9897 8.430000000 11.240000000 2.810000000 0.000000000 0.000000000 0.000000000 10.790650
59 1.0000 22.9897 5.620000000 14.050000000 2.810000000 -0.000000000 -0.000000000 0.000000000 10.790650
60 1.0000 22.9897 8.430000000 14.050000000 0.000000000 0.000000000 -0.000000000 0.000000000 10.790650
61 -1.0000 35.4530 8.430000000 11.240000000 0.000000000 0.000000000 -0.000000000 0.000000000 10.790650
62 -1.0000 35.4530 5.620000000 14.050000000 0.000000000 -0.000000000 -0.000000000 0.000000000 10.790650
63 -1.0000 35.4530 5.620000000 11.240000000 2.810000000 -0.000000000 0.000000000 0.000000000 10.790650
64 -1.0000 35.4530 8.430000000 14.050000000 2.810000000 0.000000000 -0.000000000 0.000000000 10.790650
65 1.0000 22.9897 11.240000000 11.240000000 0.000000000 0.000000000 -0.000000000 0.000000000 10.790650
66 1.0000 22.9897 14.050000000 11.240000000 2.810000000 -0.000000000 -0.000000000 -0.000000000 10.790650
67 1.0000 22.9897 11.240000000 14.050000000 2.810000000 0.000000000 -0.000000000 0.000000000 10.790650
68 1.0000 22.9897 14.050000000 14.050000000 0.000000000 -0.000000000 -0.000000000 0.000000000 10.790650
69 -1.0000 35.4530 14.050000000 11.240000000 0.000000000 -0.000000000 -0.000000000 0.000000000 10.790650
70 -1.0000 35.4530 11.240000000 14.050000000 0.000000000 -0.000000000 -0.000000000 0.000000000 10.790650
71 -1.0000 35.4530 11.240000000 11.240000000 2.810000000 -0.000000000 -0.000000000 -0.000000000 10.790650
72 -1.0000 35.4530 14.050000000 14.050000000 2.810000000 -0.000000000 -0.000000000 -0.000000000 10.790650
73 1.0000 22.9897 0.000000000 0.000000000 5.620000000 0.000000000 0.000000000 -0.000000000 10.790650
74 1.0000 22.9897 2.810000000 0.000000000 8.430000000 0.000000000 0.000000000 0.000000000 10.790650
75 1.0000 22.9897 0.000000000 2.810000000 8.430000000 0.000000000 0.000000000 0.000000000 10.790650
76 1.0000 22.9897 2.810000000 2.810000000 5.620000000 0.000000000 0.000000000 -0.000000000 10.790650
77 -1.0000 35.4530 2.810000000 0.000000000 5.620000000 -0.000000000 0.000000000 -0.000000000 10.790650
78 -1.0000 35.4530 0.000000000 2.810000000 5.620000000 0.000000000 0.000000000 -0.000000000 10.790650
79 -1.0000 35.4530 0.000000000 0.000000000 8.430000000 0.000000000 0.000000000 0.000000000 10.790650
80 -1.0000 35.4530 2.810000000 2.810000000 8.430000000 -0.000000000 -0.000000000 0.000000000 10.790650
81 1.0000 22.9897 5.620000000 0.000000000 5.620000000 -0.000000000 0.000000000 -0.000000000 10.790650
82 1.0000 22.9897 8.430000000 0.000000000 8.430000000 0.000000000 0.000000000 0.000000000 10.790650
83 1.0000 22.9897 5.620000000 2.810000000 8.430000000 -0.000000000 0.000000000 0.000000000 10.790650
84 1.0000 22.9897 8.430000000 2.810000000 5.620000000 0.000000000 -0.000000000 -0.000000000 10.790650
85 -1.0000 35.4530 8.430000000 0.000000000 5.620000000 0.000000000 0.000000000 -0.000000000 10.790650
86 -1.0000 35.4530 5.620000000 2.810000000 5.620000000 -0.000000000 -0.000000000 -0.000000000 10.790650
87 -1.0000 35.4530 5.620000000 0.000000000 8.430000000 -0.000000000 0.000000000 0.000000000 10.790650
88 -1.0000 35.4530 8.430000000 2.810000000 8.430000000 0.000000000 -0.000000000 0.000000000 10.790650
89 1.0000 22.9897 11.240000000 0.000000000 5.620000000 0.000000000 0.000000000 -0.000000000 10.790650
90 1.0000 22.9897 14.050000000 0.000000000 8.430000000 -0.000000000 0.000000000 0.000000000 10.790650
91 1.0000 22.9897 11.240000000 2.810000000 8.430000000 0.000000000 0.000000000 0.000000000 10.790650
92 1.0000 22.9897 14.050000000 2.810000000 5.620000000 -0.000000000 -0.000000000 -0.000000000 10.790650
93 -1.0000 35.4530 14.050000000 0.000000000 5.620000000 -0.000000000 0.000000000 -0.000000000 10.790650
94 -1.0000 35.4530 11.240000000 2.810000000 5.620000000 0.000000000 0.000000000 -0.000000000 10.790650
95 -1.0000 35.4530 11.240000000 0.000000000 8.430000000 -0.000000000 0.000000000 0.000000000 10.790650
96 -1.0000 35.4530 14.050000000 2.810000000 8.430000000 -0.000000000 -0.000000000 0.000000000 10.790650
97 1.0000 22.9897 0.000000000 5.620000000 5.620000000 0.000000000 -0.000000000 -0.000000000 10.790650
98 1.0000 22.9897 2.810000000 5.620000000 8.430000000 0.000000000 -0.000000000 0.000000000 10.790650
99 1.0000 22.9897 0.000000000 8.430000000 8.430000000 0.000000000 0.000000000 0.000000000 10.790650
100 1.0000 22.9897 2.810000000 8.430000000 5.620000000 0.000000000 0.000000000 -0.000000000 10.790650
101 -1.0000 35.4530 2.810000000 5.620000000 5.620000000 -0.000000000 -0.000000000 -0.000000000 10.790650
102 -1.0000 35.4530 0.000000000 8.430000000 5.620000000 0.000000000 0.000000000 -0.000000000 10.790650
103 -1.0000 35.4530 0.000000000 5.620000000 8.430000000 0.000000000 -0.000000000 0.000000000 10.790650
104 -1.0000 35.4530 2.810000000 8.430000000 8.430000000 -0.000000000 0.000000000 0.000000000 10.790650
105 1.0000 22.9897 5.620000000 5.620000000 5.620000000 -0.000000000 -0.000000000 -0.000000000 10.790650
106 1.0000 22.9897 8.430000000 5.620000000 8.430000000 0.000000000 -0.000000000 0.000000000 10.790650
107 1.0000 22.9897 5.620000000 8.430000000 8.430000000 -0.000000000 0.000000000 0.000000000 10.790650
108 1.0000 22.9897 8.430000000 8.430000000 5.620000000 0.000000000 0.000000000 -0.000000000 10.790650
109 -1.0000 35.4530 8.430000000 5.620000000 5.620000000 0.000000000 -0.000000000 -0.000000000 10.790650
110 -1.0000 35.4530 5.620000000 8.430000000 5.620000000 -0.000000000 0.000000000 -0.000000000 10.790650
111 -1.0000 35.4530 5.620000000 5.620000000 8.430000000 -0.000000000 -0.000000000 0.000000000 10.790650
112 -1.0000 35.4530 8.430000000 8.430000000 8.430000000 0.000000000 0.000000000 0.000000000 10.790650
113 1.0000 22.9897 11.240000000 5.620000000 5.620000000 -0.000000000 -0.000000000 -0.000000000 10.790650
114 1.0000 22.9897 14.050000000 5.620000000 8.430000000 -0.000000000 -0.000000000 0.000000000 10.790650
115 1.0000 22.9897 11.240000000 8.430000000 8.430000000 0.000000000 0.000000000 0.000000000 10.790650
116 1.0000 22.9897 14.050000000 8.430000000 5.620000000 -0.000000000 0.000000000 -0.000000000 10.790650
117 -1.0000 35.4530 14.050000000 5.620000000 5.620000000 -0.000000000 -0.000000000 -0.000000000 10.790650
118 -1.0000 35.4530 11.240000000 8.430000000 5.620000000 0.000000000 0.000000000 -0.000000000 10.790650
119 -1.0000 35.4530 11.240000000 5.620000000 8.430000000 -0.000000000 -0.000000000 0.000000000 10.790650
120 -1.0000 35.4530 14.050000000 8.430000000 8.430000000 -0.000000000 0.000000000 0.000000000 10.790650
121 1.0000 22.9897 0.000000000 11.240000000 5.620000000 0.000000000 0.000000000 -0.000000000 10.790650
122 1.0000 22.9897 2.810000000 11.240000000 8.430000000 0.000000000 0.000000000 0.000000000 10.790650
123 1.0000 22.9897 0.000000000 14.050000000 8.430000000 0.000000000 -0.000000000 0.000000000 10.790650
124 1.0000 22.9897 2.810000000 14.050000000 5.620000000 0.000000000 -0.000000000 -0.000000000 10.790650
125 -1.0000 35.4530 2.810000000 11.240000000 5.620000000 -0.000000000 0.000000000 -0.000000000 10.790650
126 -1.0000 35.4530 0.000000000 14.050000000 5.620000000 0.000000000 -0.000000000 -0.000000000 10.790650
127 -1.0000 35.4530 0.000000000 11.240000000 8.430000000 0.000000000 0.000000000 0.000000000 10.790650
128 -1.0000 35.4530 2.810000000 14.050000000 8.430000000 -0.000000000 -0.000000000 0.000000000 10.790650
129 1.0000 22.9897 5.620000000 11.240000000 5.620000000 -0.000000000 -0.000000000 -0.000000000 10.790650
130 1.0000 22.9897 8.430000000 11.240000000 8.430000000 0.000000000 0.000000000 0.000000000 10.790650
131 1.0000 22.9897 5.620000000 14.050000000 8.430000000 -0.000000000 -0.000000000 0.000000000 10.790650
132 1.0000 22.9897 8.430000000 14.050000000 5.620000000 0.000000000 -0.000000000 -0.000000000 10.790650
133 -1.0000 35.4530 8.430000000 11.240000000 5.620000000 0.000000000 -0.000000000 -0.000000000 10.790650
134 -1.0000 35.4530 5.620000000 14.050000000 5.620000000 -0.000000000 -0.000000000 -0.000000000 10.790650
135 -1.0000 35.4530 5.620000000 11.240000000 8.430000000 -0.000000000 0.000000000 0.000000000 10.790650
136 -1.0000 35.4530 8.430000000 14.050000000 8.430000000 0.000000000 -0.000000000 0.000000000 10.790650
137 1.0000 22.9897 11.240000000 11.240000000 5.620000000 -0.000000000 -0.000000000 -0.000000000 10.790650
138 1.0000 22.9897 14.050000000 11.240000000 8.430000000 -0.000000000 -0.000000000 0.000000000 10.790650
139 1.0000 22.9897 11.240000000 14.050000000 8.430000000 0.000000000 -0.000000000 0.000000000 10.790650
140 1.0000 22.9897 14.050000000 14.050000000 5.620000000 -0.000000000 -0.000000000 -0.000000000 10.790650
141 -1.0000 35.4530 14.050000000 11.240000000 5.620000000 -0.000000000 -0.000000000 -0.000000000 10.790650
142 -1.0000 35.4530 11.240000000 14.050000000 5.620000000 -0.000000000 -0.000000000 -0.000000000 10.790650
143 -1.0000 35.4530 11.240000000 11.240000000 8.430000000 -0.000000000 -0.000000000 0.000000000 10.790650
144 -1.0000 35.4530 14.050000000 14.050000000 8.430000000 -0.000000000 -0.000000000 0.000000000 10.790650
145 1.0000 22.9897 0.000000000 0.000000000 11.240000000 0.000000000 0.000000000 0.000000000 10.790650
146 1.0000 22.9897 2.810000000 0.000000000 14.050000000 0.000000000 0.000000000 -0.000000000 10.790650
147 1.0000 22.9897 0.000000000 2.810000000 14.050000000 0.000000000 0.000000000 -0.000000000 10.790650
148 1.0000 22.9897 2.810000000 2.810000000 11.240000000 0.000000000 0.000000000 0.000000000 10.790650
149 -1.0000 35.4530 2.810000000 0.000000000 11.240000000 -0.000000000 0.000000000 0.000000000 10.790650
150 -1.0000 35.4530 0.000000000 2.810000000 11.240000000 0.000000000 0.000000000 0.000000000 10.790650
151 -1.0000 35.4530 0.000000000 0.000000000 14.050000000 0.000000000 0.000000000 -0.000000000 10.790650
152 -1.0000 35.4530 2.810000000 2.810000000 14.050000000 -0.000000000 -0.000000000 -0.000000000 10.790650
153 1.0000 22.9897 5.620000000 0.000000000 11.240000000 -0.000000000 0.000000000 0.000000000 10.790650
154 1.0000 22.9897 8.430000000 0.000000000 14.050000000 0.000000000 0.000000000 -0.000000000 10.790650
155 1.0000 22.9897 5.620000000 2.810000000 14.050000000 -0.000000000 0.000000000 -0.000000000 10.790650
156 1.0000 22.9897 8.430000000 2.810000000 11.240000000 0.000000000 -0.000000000 0.000000000 10.790650
157 -1.0000 35.4530 8.430000000 0.000000000 11.240000000 0.000000000 0.000000000 0.000000000 10.790650
158 -1.0000 35.4530 5.620000000 2.810000000 11.240000000 -0.000000000 0.000000000 0.000000000 10.790650
159 -1.0000 35.4530 5.620000000 0.000000000 14.050000000 -0.000000000 0.000000000 -0.000000000 10.790650
160 -1.0000 35.4530 8.430000000 2.810000000 14.050000000 0.000000000 -0.000000000 -0.000000000 10.790650
161 1.0000 22.9897 11.240000000 0.000000000 11.240000000 0.000000000 0.000000000 0.000000000 10.790650
162 1.0000 22.9897 14.050000000 0.000000000 14.050000000 -0.000000000 0.000000000 -0.000000000 10.790650
163 1.0000 22.9897 11.240000000 2.810000000 14.050000000 0.000000000 0.000000000 -0.000000000 10.790650
164 1.0000 22.9897 14.050000000 2.810000000 11.240000000 -0.000000000 -0.000000000 0.000000000 10.790650
165 -1.0000 35.4530 14.050000000 0.000000000 11.240000000 -0.000000000 0.000000000 -0.000000000 10.790650
166 -1.0000 35.4530 11.240000000 2.810000000 11.240000000 0.000000000 0.000000000 0.000000000 10.790650
167 -1.0000 35.4530 11.240000000 0.000000000 14.050000000 -0.000000000 0.000000000 -0.000000000 10.790650
168 -1.0000 35.4530 14.050000000 2.810000000 14.050000000 -0.000000000 -0.000000000 -0.000000000 10.790650
169 1.0000 22.9897 0.000000000 5.620000000 11.240000000 0.000000000 -0.000000000 0.000000000 10.790650
170 1.0000 22.9897 2.810000000 5.620000000 14.050000000 0.000000000 -0.000000000 -0.000000000 10.790650
171 1.0000 22.9897 0.000000000 8.430000000 14.050000000 0.000000000 0.000000000 -0.000000000 10.790650
172 1.0000 22.9897 2.810000000 8.430000000 11.240000000 0.000000000 0.000000000 0.000000000 10.790650
173 -1.0000 35.4530 2.810000000 5.620000000 11.240000000 -0.000000000 -0.000000000 -0.000000000 10.790650
174 -1.0000 35.4530 0.000000000 8.430000000 11.240000000 0.000000000 0.000000000 0.000000000 10.790650
175 -1.0000 35.4530 0.000000000 5.620000000 14.050000000 0.000000000 -0.000000000 -0.000000000 10.790650
176 -1.0000 35.4530 2.810000000 8.430000000 14.050000000 -0.000000000 0.000000000 -0.000000000 10.790650
177 1.0000 22.9897 5.620000000 5.620000000 11.240000000 -0.000000000 -0.000000000 0.000000000 10.790650
178 1.0000 22.9897 8.430000000 5.620000000 14.050000000 0.000000000 -0.000000000 -0.000000000 10.790650
179 1.0000 22.9897 5.620000000 8.430000000 14.050000000 -0.000000000 0.000000000 -0.000000000 10.790650
180 1.0000 22.9897 8.430000000 8.430000000 11.240000000 0.000000000 0.000000000 -0.000000000 10.790650
181 -1.0000 35.4530 8.430000000 5.620000000 11.240000000 0.000000000 -0.000000000 -0.000000000 10.790650
182 -1.0000 35.4530 5.620000000 8.430000000 11.240000000 -0.000000000 0.000000000 -0.000000000 10.790650
183 -1.0000 35.4530 5.620000000 5.620000000 14.050000000 -0.000000000 -0.000000000 -0.000000000 10.790650
184 -1.0000 35.4530 8.430000000 8.430000000 14.050000000 0.000000000 0.000000000 -0.000000000 10.790650
185 1.0000 22.9897 11.240000000 5.620000000 11.240000000 -0.000000000 -0.000000000 -0.000000000 10.790650
186 1.0000 22.9897 14.050000000 5.620000000 14.050000000 -0.000000000 -0.000000000 -0.000000000 10.790650
187 1.0000 22.9897 11.240000000 8.430000000 14.050000000 0.000000000 0.000000000 -0.000000000 10.790650
188 1.0000 22.9897 14.050000000 8.430000000 11.240000000 -0.000000000 0.000000000 -0.000000000 10.790650
189 -1.0000 35.4530 14.050000000 5.620000000 11.240000000 -0.000000000 -0.000000000 -0.000000000 10.790650
190 -1.0000 35.4530 11.240000000 8.430000000 11.240000000 0.000000000 0.000000000 -0.000000000 10.790650
191 -1.0000 35.4530 11.240000000 5.620000000 14.050000000 -0.000000000 -0.000000000 -0.000000000 10.790650
192 -1.0000 35.4530 14.050000000 8.430000000 14.050000000 -0.000000000 0.000000000 -0.000000000 10.790650
193 1.0000 22.9897 0.000000000 11.240000000 11.240000000 0.000000000 0.000000000 0.000000000 10.790650
194 1.0000 22.9897 2.810000000 11.240000000 14.050000000 0.000000000 0.000000000 -0.000000000 10.790650
195 1.0000 22.9897 0.000000000 14.050000000 14.050000000 0.000000000 -0.000000000 -0.000000000 10.790650
196 1.0000 22.9897 2.810000000 14.050000000 11.240000000 0.000000000 -0.000000000 -0.000000000 10.790650
197 -1.0000 35.4530 2.810000000 11.240000000 11.240000000 -0.000000000 0.000000000 -0.000000000 10.790650
198 -1.0000 35.4530 0.000000000 14.050000000 11.240000000 0.000000000 -0.000000000 -0.000000000 10.790650
199 -1.0000 35.4530 0.000000000 11.240000000 14.050000000 0.000000000 0.000000000 -0.000000000 10.790650
200 -1.0000 35.4530 2.810000000 14.050000000 14.050000000 -0.000000000 -0.000000000 -0.000000000 10.790650
201 1.0000 22.9897 5.620000000 11.240000000 11.240000000 -0.000000000 -0.000000000 -0.000000000 10.790650
202 1.0000 22.9897 8.430000000 11.240000000 14.050000000 0.000000000 0.000000000 -0.000000000 10.790650
203 1.0000 22.9897 5.620000000 14.050000000 14.050000000 -0.000000000 -0.000000000 -0.000000000 10.790650
204 1.0000 22.9897 8.430000000 14.050000000 11.240000000 0.000000000 -0.000000000 -0.000000000 10.790650
205 -1.0000 35.4530 8.430000000 11.240000000 11.240000000 0.000000000 -0.000000000 -0.000000000 10.790650
206 -1.0000 35.4530 5.620000000 14.050000000 11.240000000 -0.000000000 -0.000000000 -0.000000000 10.790650
207 -1.0000 35.4530 5.620000000 11.240000000 14.050000000 -0.000000000 0.000000000 -0.000000000 10.790650
208 -1.0000 35.4530 8.430000000 14.050000000 14.050000000 0.000000000 -0.000000000 -0.000000000 10.790650
209 1.0000 22.9897 11.240000000 11.240000000 11.240000000 -0.000000000 -0.000000000 -0.000000000 10.790650
210 1.0000 22.9897 14.050000000 11.240000000 14.050000000 -0.000000000 -0.000000000 -0.000000000 10.790650
211 1.0000 22.9897 11.240000000 14.050000000 14.050000000 0.000000000 -0.000000000 -0.000000000 10.790650
212 1.0000 22.9897 14.050000000 14.050000000 11.240000000 -0.000000000 -0.000000000 -0.000000000 10.790650
213 -1.0000 35.4530 14.050000000 11.240000000 11.240000000 -0.000000000 -0.000000000 -0.000000000 10.790650
214 -1.0000 35.4530 11.240000000 14.050000000 11.240000000 -0.000000000 -0.000000000 -0.000000000 10.790650
215 -1.0000 35.4530 11.240000000 11.240000000 14.050000000 -0.000000000 -0.000000000 -0.000000000 10.790650
216 -1.0000 35.4530 14.050000000 14.050000000 14.050000000 -0.000000000 -0.000000000 -0.000000000 10.790650
ITEM: TIMESTEP
10000
ITEM: NUMBER OF ATOMS
216
ITEM: BOX BOUNDS pp pp pp
0.0000000000000000e+00 1.6859999999999999e+01
0.0000000000000000e+00 1.6859999999999999e+01
0.0000000000000000e+00 1.6859999999999999e+01
ITEM: ATOMS id q mass x y z fx fy fz c_1
1 1.0000 22.9897 1.646640961 14.451252482 2.767100934 -2.883653664 32.841931537 -9.053862524 13.185481
2 1.0000 22.9897 5.655171225 12.066304470 9.028876560 12.057631697 -1.613105857 4.561822689  4.851151
3 1.0000 22.9897 14.900837971 1.157353755 16.160120946 3.074655826 -5.996836002 -11.825918073  5.665669
4 1.0000 22.9897 0.949756320 14.401951400 5.406679767 -16.639824475 -5.124782340 16.924395125  8.245255
5 -1.0000 35.4530 16.615115376 12.526760180 2.669235680 39.807636509 4.100904317 -43.971485597 19.021064
6 -1.0000 35.4530 11.810411413 15.954611345 15.541446772 18.485675128 2.708593126 -7.538301092 12.885036
7 -1.0000 35.4530 14.377597942 15.168794576 16.614990393 8.050954969 9.480366058 9.704348780  8.077330
8 -1.0000 35.4530 4.038470994 1.952057898 6.487974517 -2.880397340 12.092926016 -5.302006046  6.112079
9 1.0000 22.9897 6.554077320 15.663693765 0.794374782 5.081315149 6.885255525 -3.582094567  7.512387
10 1.0000 22.9897 6.571261890 12.804632902 0.733650462 4.185004146 -2.023149533 -10.907851029  5.108131
11 1.0000 22.9897 11.774421621 0.236635657 5.502250152 0.487043521 -7.182559346 -6.637572934  3.830541
12 1.0000 22.9897 10.052356497 5.977925765 14.914656044 7.135755052 14.672498574 7.094901605  9.922102
13 -1.0000 35.4530 10.933134729 15.748386763 10.462525687 -4.506648957 -3.444465586 -15.072364907  5.478227
14 -1.0000 35.4530 3.752223681 16.647078457 3.654357740 -3.323909095 2.385645623 7.353503104  2.167024
15 -1.0000 35.4530 3.611515744 13.543590560 4.544332995 9.639062628 -7.543829537 7.834288212  6.447916
16 -1.0000 35.4530 6.330962953 14.284429515 3.860106154 8.213950820 12.142431271 -21.920874306  4.569515
17 1.0000 22.9897 14.484103873 16.062375437 4.508654590 5.947768088 5.098791836 3.554538614  5.738351
18 1.0000 22.9897 5.797790897 5.896367237 5.977371029 5.687357155 2.761381248 1.653147635  7.292543
19 1.0000 22.9897 13.206224568 3.153311387 3.825528719 7.347862210 -6.878030094 21.518081395  8.320912
20 1.0000 22.9897 4.980656400 9.130524630 16.028308729 -10.292066735 -1.882415004 22.670667001  6.227899
21 -1.0000 35.4530 11.365389905 1.904335677 0.264915492 11.154573966 8.310185388 -26.285692082  5.789089
22 -1.0000 35.4530 12.602175500 4.824820322 16.377887191 -10.805635961 5.841342302 -14.343834897  5.818885
23 -1.0000 35.4530 10.584198229 0.763866034 2.612078299 15.446508949 29.368363851 40.142528189 15.178575
24 -1.0000 35.4530 14.563634080 9.769550513 0.944583928 -4.406547744 3.290145720 -6.054093751  7.584213
25 1.0000 22.9897 11.784489915 7.216420854 11.120860968 14.189890863 9.846277214 -0.813989302  6.946981
26 1.0000 22.9897 1.743275450 1.785324614 2.155768696 22.539725272 14.330128763 -0.750965483  7.825633
27 1.0000 22.9897 15.316988906 7.595429661 4.793744611 -16.417652624 -12.659068023 -0.048374151  5.871268
28 1.0000 22.9897 14.419473215 6.241781769 1.946263992 3.705437133 -4.164434494 -1.222556422  1.262603
29 -1.0000 35.4530 3.696100378 8.077030223 1.896907489 -21.266527864 7.196818995 -10.491349130  6.705714
30 -1.0000 35.4530 11.511378216 4.283165340 2.100069033 -11.133131864 24.477109716 -11.150058374  9.624382
31 -1.0000 35.4530 9.891553527 8.521093316 3.132195929 6.914983158 14.544462549 8.242518688  4.821077
32 -1.0000 35.4530 1.543015049 4.870767924 15.022907962 2.132946053 3.110208962 -1.687098030  3.892330
33 1.0000 22.9897 1.956659974 3.645375701 4.644966945 -9.120390487 -23.287289183 9.606255287  6.623774
34 1.0000 22.9897 6.740045237 1.431459627 8.907581014 -16.571398421 -31.731604042 -46.755130398 13.549239
35 1.0000 22.9897 11.703018795 7.251253811 1.060660470 8.259059146 -4.011429650 -4.206632643  5.175156
36 1.0000 22.9897 8.978202091 3.600973370 15.797196349 -1.442780041 5.036715014 6.617122887  5.836562
37 -1.0000 35.4530 6.615499891 0.658110682 3.007655629 18.998383795 4.447519145 -38.599720126  7.601606
38 -1.0000 35.4530 7.294719031 8.303904413 14.619654358 2.457667326 -12.538802773 -24.800518840  8.997156
39 -1.0000 35.4530 4.537899260 2.806487379 3.497456607 13.701928120 -6.323153752 7.525991208  4.488263
40 -1.0000 35.4530 6.692120832 6.211839175 8.812931540 5.767380894 -18.573027583 -20.209908393 11.456215
41 1.0000 22.9897 12.633406000 11.058890428 12.975788539 -7.675167692 -6.772932322 -6.628302927  7.246837
42 1.0000 22.9897 11.402182480 8.557707497 15.051435615 12.765528731 13.644988527 2.270306054  6.409409
43 1.0000 22.9897 1.713688013 8.360441338 5.038251683 -5.280224658 14.490111792 -21.207148849  7.775292
44 1.0000 22.9897 9.563465585 12.868861091 0.726193283 0.688282873 21.007230356 -3.859701063  7.548900
45 -1.0000 35.4530 14.091135487 4.889475640 8.819921089 -17.377593560 11.527761536 64.345440030 17.514607
46 -1.0000 35.4530 6.493397589 6.309153888 16.555839067 11.217141333 -8.190535394 -6.607637510  4.829572
47 -1.0000 35.4530 3.418996668 14.056123939 15.634536413 17.039995776 21.139323927 -5.134273074  6.608564
48 -1.0000 35.4530 0.302335324 11.453438261 5.050042628 7.766813126 10.064097325 16.116973061 13.567193
49 1.0000 22.9897 16.693450183 12.751469746 14.123542232 -0.707909962 17.256856985 -12.886870529  4.088755
50 1.0000 22.9897 9.137791239 12.909832523 4.602640351 -5.569122905 -4.532072365 -2.125898552  4.433321
51 1.0000 22.9897 2.569794658 10.822125377 3.201413950 -7.340292846 -1.538492441 5.555738212  5.257448
52 1.0000 22.9897 13.681890595 13.819638869 14.297857725 4.282804026 -10.297288237 -24.542746940  6.494871
53 -1.0000 35.4530 5.300104303 11.552624959 3.000974981 15.892890510 -5.360363815 16.744980819  5.999939
54 -1.0000 35.4530 15.649448418 14.066407102 9.343384675 -38.798366598 -29.222459189 -6.442808036 11.678899
55 -1.0000 35.4530 7.902011713 10.261201221 16.532475791 -21.414643066 48.617340464 1.345018047 10.888487
56 -1.0000 35.4530 0.559452598 12.552364735 11.091682702 65.324458545 10.816285070 -15.858777876 11.795446
57 1.0000 22.9897 7.380084763 10.513444724 12.716505718 -2.891895710 2.953690873 -8.502887439  5.465421
58 1.0000 22.9897 3.684701418 0.317628644 14.773628501 -5.263528456 3.255618608 32.804922998 11.574534
59 1.0000 22.9897 8.239029994 11.219726648 7.418055058 1.917151662 3.124171052 4.081249433  5.546781
60 1.0000 22.9897 4.136347678 14.511842794 1.606188174 8.217603759 -6.886010405 -2.843465514  7.996635
61 -1.0000 35.4530 0.377320505 15.790083795 15.522562257 -11.260961310 -15.348350563 -19.983483582  5.047132
62 -1.0000 35.4530 0.329636989 12.096425491 8.005907067 22.392224282 0.936767896 -7.970584291  7.591735
63 -1.0000 35.4530 8.375326811 6.549439599 4.789373264 -4.181792981 12.465960156 -0.596529765  7.918470
64 -1.0000 35.4530 3.791708453 11.639635774 0.562103398 13.423536971 -0.970943399 15.754368957  8.833977
65 1.0000 22.9897 11.821037426 14.315052665 4.323171098 0.089403677 10.292634067 -13.997662517  3.965866
66 1.0000 22.9897 16.414706527 9.534601955 3.009439456 16.114436664 -5.653641391 -0.142665231  9.211768
67 1.0000 22.9897 9.064824897 2.920647582 2.039657398 -20.563565163 5.714195921 -13.396777612  8.727830
68 1.0000 22.9897 14.203009429 8.555675916 12.608021300 -45.165840650 5.735801565 50.010238416 13.200280